============================== echo of input deck ==============================
# echo input file to output
echo
title "Cisplatin"
memory total 4 gb
scratch_dir /tmp

# Charge of the system
charge 0

# XYZ coordinates in Angstrom units
# Automatic symmetry detection enabled (default tol 0.01). Disable with noautosym.
geometry units angstroms autosym 0.1
 Pt                 0.00000000   -0.00000000   -0.19134710
 Cl                 0.00000000    1.61220407    1.42085566
 Cl                 0.00000000   -1.61220407    1.42085566
 N                  0.00000000    1.40714181   -1.59849021
 H                  0.81649658    1.30951047   -2.16752575
 H                 -0.81649658    1.30951047   -2.16752575
 N                  0.00000000   -1.40714181   -1.59849021
 H                 -0.81649658   -1.30951047   -2.16752575
 H                  0.81649658   -1.30951047   -2.16752575
 H                  0.00000000    2.30951093   -1.16752621
 H                  0.00000000   -2.30951093   -1.16752621
end

dft
  # Exchange-correlation functional
  xc pbe0
  # Semidirect SCF. Cache integrals in memory, but do not use disk
  # 130 megawords is ~1000 megabytes for 64-bit machines
  semidirect memsize 130000000 filesize 0
  # For completely direct SCF without caching, use
  #direct

  # Spin multiplicity 2S + 1, where S = 0, 1/2, 1, 3/2, ...
  mult 1
  # For open-shell singlet calculation, add
  #odft

  # Reduce output during geometry optimization
  noprint "final vectors analysis"

  # Increase the number of SCF iterations
  iterations 100
end

# Basis set definitions
basis spherical
  * library def2-tzvp
end
ecp
  Pt library def2-ecp
end

# Options for the geometry optimizer
driver
  # Max 100 optimization steps
  maxiter 100
  # Print XYZ coordinates of each step
  xyz
end

# Optimize geometry
task dft optimize

# Run property calculation after the geometry optimization to
# create Molden file for plotting molecular orbitals
property
  moldenfile
  molden_norm none
end

task dft property

================================================================================

         Total DFT energy =    -1152.631242885086
@ Step       Energy      Delta E   Gmax     Grms     Xrms     Xmax   Walltime
@ ---- ---------------- -------- -------- -------- -------- -------- --------
@    0   -1152.63124289  0.0D+00  0.03147  0.00929  0.00000  0.00000     37.3
         Total DFT energy =    -1152.641409505763
         Total DFT energy =    -1152.642376960059
@    1   -1152.64237696 -1.1D-02  0.01046  0.00411  0.16549  0.37748     82.6
         Total DFT energy =    -1152.644369935966
         Total DFT energy =    -1152.644444233702
@    2   -1152.64444423 -2.1D-03  0.00223  0.00078  0.08149  0.19097    126.5
         Total DFT energy =    -1152.644712967809
         Total DFT energy =    -1152.644808998610
@    3   -1152.64480900 -3.6D-04  0.00133  0.00037  0.02306  0.05789    169.7
         Total DFT energy =    -1152.644824029440
         Total DFT energy =    -1152.644824537625
@    4   -1152.64482454 -1.6D-05  0.00033  0.00010  0.00532  0.01179    206.3
         Total DFT energy =    -1152.644827051319
         Total DFT energy =  -1152.644827051319
@    5   -1152.64482705 -2.5D-06  0.00011  0.00004  0.00154  0.00355    238.5
         Total DFT energy =    -1152.644827863194
         Total DFT energy =  -1152.644827863194
@    6   -1152.64482786 -8.1D-07  0.00003  0.00001  0.00117  0.00259    267.1
         Total DFT energy =    -1152.644827810130

     Multipole analysis of the density
     ---------------------------------

     L   x y z        total         alpha         beta         nuclear
     -   - - -        -----         -----         ----         -------
     0   0 0 0     -0.000000    -36.000000    -36.000000     72.000000

     1   1 0 0     -0.000000     -0.000000     -0.000000      0.000000
     1   0 1 0      0.000000      0.000000      0.000000      0.000000
     1   0 0 1     -4.147888     -8.056899     -8.056899     11.965911

     2   2 0 0    -43.539297   -295.625705   -295.625705    547.712113
     2   1 1 0      0.000000      0.000000      0.000000      0.000000
     2   1 0 1      0.000000      0.000000      0.000000      0.000000
     2   0 2 0    -46.480703    -28.104410    -28.104410      9.728117
     2   0 1 1      0.000000      0.000000      0.000000      0.000000

         Total DFT energy =  -1152.644827810130
@    7   -1152.64482781  5.3D-08  0.00001  0.00001  0.00017  0.00032    295.2
@    7   -1152.64482781  5.3D-08  0.00001  0.00001  0.00017  0.00032    295.2

 Output coordinates in angstroms (scale by  1.889725989 to convert to a.u.)

  No.       Tag          Charge          X              Y              Z
 ---- ---------------- ---------- -------------- -------------- --------------
    1 Pt                  78.0000     0.00000000     0.00000000    -0.24307151
    2 Cl                  17.0000    -1.68651619     0.00000000     1.28782485
    3 Cl                  17.0000     1.68651619     0.00000000     1.28782485
    4 N                    7.0000    -1.57528925     0.00000000    -1.59952668
    5 H                    1.0000    -1.62657797     0.82525004    -2.18714190
    6 H                    1.0000    -1.62657797    -0.82525004    -2.18714190
    7 N                    7.0000     1.57528925     0.00000000    -1.59952668
    8 H                    1.0000     1.62657797    -0.82525004    -2.18714190
    9 H                    1.0000     1.62657797     0.82525004    -2.18714190
   10 H                    1.0000    -2.38149642     0.00000000    -0.96836443
   11 H                    1.0000     2.38149642     0.00000000    -0.96836443

 Total times  cpu:      294.8s     wall:      295.3s
