                               Psi4 1.3.2 release

  ==> Input File <==

--------------------------------------------------------------------------
# PBE0/def2-QZVP calculation on methylcyclohexane conformer #3

memory 4 gb

molecule {
	    C     1.0216419245  -0.0001893047  -0.3161487792
	    C     0.2973378810  -1.2506189086   0.1775810939
	    C     0.2974575475   1.2506064200   0.1768888542
	    C    -1.1744365717  -1.2562548858  -0.2114123160
	    C    -1.1744003045   1.2563138446  -0.2118044939
	    C    -1.8832979544   0.0001086433   0.2763796821
	    C     2.5044935295   0.0000211444   0.0793266134
	    H     0.9512211911  -0.0006346245  -1.4122949918
	    H     0.3862894619  -1.2982365713   1.2715459249
	    H     0.7972905901  -2.1442785585  -0.2110917697
	    H     0.7974907920   2.1441281708  -0.2119996269
	    H     0.3864916794   1.2984938158   1.2708408296
	    H    -1.6669778433  -2.1498908639   0.1839200828
	    H    -1.2570179075  -1.3143309934  -1.3042533603
	    H    -1.2572891892   1.3142828167  -1.3046177348
	    H    -1.6667382460   2.1500405286   0.1835849215
	    H    -2.9272715623   0.0000773207  -0.0514713459
	    H    -1.9011221133   0.0002497318   1.3736480570
	    H     2.7616318183  -0.8827199494   0.6705925314
	    H     3.1617458457   0.0067799630  -0.7925468044
	    H     2.7583418418   0.8761945606   0.6816958235
}

# It is beneficial to initialize larger-basis calculations with
# a small reasonable basis; use def2-SV(P) for this purpose
set basis_guess def2-SV(P)
set basis def2-QZVP
energy('pbe0')
--------------------------------------------------------------------------

    Molecular point group: c1
  Charge       = 0
  Multiplicity = 1
  Basis Set: DEF2-SV(P)
    Blend: DEF2-SV(P)
  Basis Set: (DEF2-SV(P) AUX)
    Blend: DEF2-SV_P_-JKFIT
  @DF-RKS Final Energy:  -274.62482268456802
    Total Energy =                       -274.6248226845680165
    Molecular point group: c1

    Geometry (in Angstrom), charge = 0, multiplicity = 1:

       Center              X                  Y                   Z               Mass
    ------------   -----------------  -----------------  -----------------  -----------------
         C            1.021641924501    -0.000189304710    -0.316148779207    12.000000000000
         C            0.297337881001    -1.250618908610     0.177581093893    12.000000000000
         C            0.297457547501     1.250606419990     0.176888854193    12.000000000000
         C           -1.174436571699    -1.256254885810    -0.211412316007    12.000000000000
         C           -1.174400304499     1.256313844590    -0.211804493907    12.000000000000
         C           -1.883297954399     0.000108643290     0.276379682093    12.000000000000
         C            2.504493529501     0.000021144390     0.079326613393    12.000000000000
         H            0.951221191101    -0.000634624510    -1.412294991807     1.007825032230
         H            0.386289461901    -1.298236571310     1.271545924893     1.007825032230
         H            0.797290590101    -2.144278558510    -0.211091769707     1.007825032230
         H            0.797490792001     2.144128170790    -0.211999626907     1.007825032230
         H            0.386491679401     1.298493815790     1.270840829593     1.007825032230
         H           -1.666977843299    -2.149890863910     0.183920082793     1.007825032230
         H           -1.257017907499    -1.314330993410    -1.304253360307     1.007825032230
         H           -1.257289189199     1.314282816690    -1.304617734807     1.007825032230
         H           -1.666738245999     2.150040528590     0.183584921493     1.007825032230
         H           -2.927271562299     0.000077320690    -0.051471345907     1.007825032230
         H           -1.901122113299     0.000249731790     1.373648056993     1.007825032230
         H            2.761631818301    -0.882719949410     0.670592531393     1.007825032230
         H            3.161745845701     0.006779962990    -0.792546804407     1.007825032230
         H            2.758341841801     0.876194560590     0.681695823493     1.007825032230

  Charge       = 0
  Multiplicity = 1
  Basis Set: DEF2-QZVP
    Blend: DEF2-QZVP
  Basis Set: (DEF2-QZVP AUX)
    Blend: DEF2-QZVP-JKFIT

    Orbital Energies [Eh]
    ---------------------

    Doubly Occupied:

       1A    -10.219710     2A    -10.211616     3A    -10.211430
       4A    -10.211248     5A    -10.210444     6A    -10.210432
       7A    -10.204256     8A     -0.859712     9A     -0.784045
      10A     -0.760774    11A     -0.692131    12A     -0.624308
      13A     -0.599671    14A     -0.564873    15A     -0.486683
      16A     -0.459168    17A     -0.449016    18A     -0.445433
      19A     -0.424193    20A     -0.394676    21A     -0.385681
      22A     -0.377399    23A     -0.356814    24A     -0.347726
      25A     -0.336185    26A     -0.318991    27A     -0.304684
      28A     -0.300831

  @DF-RKS Final Energy:  -274.96231522395550

   => Energetics <=

    Nuclear Repulsion Energy =            329.5211559991223567
    One-Electron Energy =               -1022.1402877476238018
    Two-Electron Energy =                 450.3112625664828101
    DFT Exchange-Correlation Energy =     -32.6544460419368789
    Empirical Dispersion Energy =           0.0000000000000000
    VV10 Nonlocal Energy =                  0.0000000000000000
    Total Energy =                       -274.9623152239554997

  Dipole Moment: [D]
     X:    -0.0909      Y:     0.0001      Z:    -0.0874     Total:     0.1261

*** Psi4 exiting successfully. Buy a developer a beer!
