                               Psi4 1.3.2 release

  ==> Input File <==

--------------------------------------------------------------------------
# PBE0/def2-TZVP calculation on methylcyclohexane conformer #2

memory 4 gb

molecule {
	    C    -0.9722110106  -0.0327178145  -0.3317394209
	    C    -0.3230575991   1.3051763356   0.0549465016
	    C    -0.2799358137  -1.1703549653   0.4084020749
	    C     1.1707491624   1.1735533229   0.3780596124
	    C     1.1865243780  -1.3080141347  -0.0202102127
	    C     1.8009202197   0.0403620054  -0.4174616034
	    C    -2.4717798740  -0.0105506963  -0.0908392374
	    H    -0.8087844643  -0.1950236872  -1.4056295336
	    H    -0.8495212096   1.7199328933   0.9221690658
	    H    -0.4695454065   2.0218373804  -0.7599221104
	    H    -0.8113728409  -2.1127804385   0.2447639560
	    H    -0.3428586988  -0.9712230168   1.4854308307
	    H     1.3043952140   0.9702107563   1.4465484474
	    H     1.6840387395   2.1191808048   0.1839931571
	    H     1.2636624230  -2.0050932080  -0.8602184482
	    H     1.7632973914  -1.7516361470   0.7971908469
	    H     1.6407454705   0.2251060645  -1.4855926815
	    H     2.8844283912   0.0183001103  -0.2730171679
	    H    -2.6900359915   0.0903337794   0.9772603697
	    H    -2.9448589677   0.8307839411  -0.6052679767
	    H    -2.9477420718  -0.9296150780  -0.4433568897
}

# It is beneficial to initialize larger-basis calculations with
# a small reasonable basis; use def2-SV(P) for this purpose
set basis_guess def2-SV(P)
set basis def2-TZVP
energy('pbe0')
--------------------------------------------------------------------------

    Molecular point group: c1
  Charge       = 0
  Multiplicity = 1
  Basis Set: DEF2-SV(P)
    Blend: DEF2-SV(P)
  Basis Set: (DEF2-SV(P) AUX)
    Blend: DEF2-SV_P_-JKFIT
  @DF-RKS Final Energy:  -274.61963079986106
    Total Energy =                       -274.6196307998610564
    Molecular point group: c1

    Geometry (in Angstrom), charge = 0, multiplicity = 1:

       Center              X                  Y                   Z               Mass
    ------------   -----------------  -----------------  -----------------  -----------------
         C           -0.972211010586    -0.032717814511    -0.331739420902    12.000000000000
         C           -0.323057599086     1.305176335589     0.054946501598    12.000000000000
         C           -0.279935813686    -1.170354965311     0.408402074898    12.000000000000
         C            1.170749162414     1.173553322889     0.378059612398    12.000000000000
         C            1.186524378014    -1.308014134711    -0.020210212702    12.000000000000
         C            1.800920219714     0.040362005389    -0.417461603402    12.000000000000
         C           -2.471779873986    -0.010550696311    -0.090839237402    12.000000000000
         H           -0.808784464286    -0.195023687211    -1.405629533602     1.007825032230
         H           -0.849521209586     1.719932893289     0.922169065798     1.007825032230
         H           -0.469545406486     2.021837380389    -0.759922110402     1.007825032230
         H           -0.811372840886    -2.112780438511     0.244763955998     1.007825032230
         H           -0.342858698786    -0.971223016811     1.485430830698     1.007825032230
         H            1.304395214014     0.970210756289     1.446548447398     1.007825032230
         H            1.684038739514     2.119180804789     0.183993157098     1.007825032230
         H            1.263662423014    -2.005093208011    -0.860218448202     1.007825032230
         H            1.763297391414    -1.751636147011     0.797190846898     1.007825032230
         H            1.640745470514     0.225106064489    -1.485592681502     1.007825032230
         H            2.884428391214     0.018300110289    -0.273017167902     1.007825032230
         H           -2.690035991486     0.090333779389     0.977260369698     1.007825032230
         H           -2.944858967686     0.830783941089    -0.605267976702     1.007825032230
         H           -2.947742071786    -0.929615078011    -0.443356889702     1.007825032230

  Charge       = 0
  Multiplicity = 1
  Basis Set: DEF2-TZVP
    Blend: DEF2-TZVP
  Basis Set: (DEF2-TZVP AUX)
    Blend: DEF2-TZVP-JKFIT

    Orbital Energies [Eh]
    ---------------------

    Doubly Occupied:

       1A    -10.216566     2A    -10.209358     3A    -10.209021
       4A    -10.208753     5A    -10.207982     6A    -10.207427
       7A    -10.202805     8A     -0.859183     9A     -0.783355
      10A     -0.756626    11A     -0.691434    12A     -0.627366
      13A     -0.608048    14A     -0.536484    15A     -0.500534
      16A     -0.479625    17A     -0.453241    18A     -0.425480
      19A     -0.417314    20A     -0.390760    21A     -0.381213
      22A     -0.372402    23A     -0.362661    24A     -0.352292
      25A     -0.348333    26A     -0.307894    27A     -0.302150
      28A     -0.300083

  @DF-RKS Final Energy:  -274.93746453131126

   => Energetics <=

    Nuclear Repulsion Energy =            330.3007073107152110
    One-Electron Energy =               -1023.7114288360619412
    Two-Electron Energy =                 451.1367138314703311
    DFT Exchange-Correlation Energy =     -32.6634568374348788
    Empirical Dispersion Energy =           0.0000000000000000
    VV10 Nonlocal Energy =                  0.0000000000000000
    Total Energy =                       -274.9374645313112637

  Dipole Moment: [D]
     X:     0.1012      Y:    -0.0062      Z:    -0.0818     Total:     0.1303

*** Psi4 exiting successfully. Buy a developer a beer!
