                               Psi4 1.3.2 release

  ==> Input File <==

--------------------------------------------------------------------------
# PBE0/def2-SVP calculation on methylcyclohexane conformer #4

memory 4 gb

molecule {
	    C     1.0967391628  -0.0189497195  -0.5442522969
	    C     0.2248116124  -1.2773262118  -0.5815552448
	    C     0.2186666840   1.2281403889  -0.6812511722
	    C    -0.9107270848  -1.2430181465   0.4351430269
	    C    -0.9165900156   1.2691052592   0.3354739372
	    C    -1.7656183377   0.0063011319   0.2652294025
	    C     1.9861643489   0.0324766408   0.6929603546
	    H     1.7619761891  -0.0519593128  -1.4155121231
	    H     0.8470133499  -2.1651667770  -0.4268217404
	    H    -0.2084250060  -1.3732402737  -1.5849221445
	    H    -0.2150661957   1.2417167067  -1.6888811869
	    H     0.8364239134   2.1285704211  -0.5978963419
	    H    -0.5029163708  -1.2675470736   1.4523818526
	    H    -1.5267819337  -2.1416437225   0.3329272687
	    H    -1.5368131345   2.1539784780   0.1627803425
	    H    -0.5088087563   1.3758575644   1.3474077991
	    H    -2.2691485831  -0.0335678392  -0.7094746205
	    H    -2.5554707794   0.0345024101   1.0220933739
	    H     2.6286920275   0.9169412507   0.6736089759
	    H     1.4091425194   0.0683224367   1.6197482185
	    H     2.6326254302  -0.8478211176   0.7442933959
}

set basis def2-SVP
energy('pbe0')
--------------------------------------------------------------------------

    Molecular point group: c1

    Geometry (in Angstrom), charge = 0, multiplicity = 1:

       Center              X                  Y                   Z               Mass
    ------------   -----------------  -----------------  -----------------  -----------------
         C            1.096739162806    -0.018949719487    -0.544252296887    12.000000000000
         C            0.224811612406    -1.277326211787    -0.581555244787    12.000000000000
         C            0.218666684006     1.228140388913    -0.681251172187    12.000000000000
         C           -0.910727084794    -1.243018146487     0.435143026913    12.000000000000
         C           -0.916590015594     1.269105259213     0.335473937213    12.000000000000
         C           -1.765618337694     0.006301131913     0.265229402513    12.000000000000
         C            1.986164348906     0.032476640813     0.692960354613    12.000000000000
         H            1.761976189106    -0.051959312787    -1.415512123087     1.007825032230
         H            0.847013349906    -2.165166776987    -0.426821740387     1.007825032230
         H           -0.208425005994    -1.373240273687    -1.584922144487     1.007825032230
         H           -0.215066195694     1.241716706713    -1.688881186887     1.007825032230
         H            0.836423913406     2.128570421113    -0.597896341887     1.007825032230
         H           -0.502916370794    -1.267547073587     1.452381852613     1.007825032230
         H           -1.526781933694    -2.141643722487     0.332927268713     1.007825032230
         H           -1.536813134494     2.153978478013     0.162780342513     1.007825032230
         H           -0.508808756294     1.375857564413     1.347407799113     1.007825032230
         H           -2.269148583094    -0.033567839187    -0.709474620487     1.007825032230
         H           -2.555470779394     0.034502410113     1.022093373913     1.007825032230
         H            2.628692027506     0.916941250713     0.673608975913     1.007825032230
         H            1.409142519406     0.068322436713     1.619748218513     1.007825032230
         H            2.632625430206    -0.847821117587     0.744293395913     1.007825032230

  Charge       = 0
  Multiplicity = 1
  Basis Set: DEF2-SVP
    Blend: DEF2-SVP
  Basis Set: (DEF2-SVP AUX)
    Blend: DEF2-SVP-JKFIT

    Orbital Energies [Eh]
    ---------------------

    Doubly Occupied:

       1A    -10.227243     2A    -10.219944     3A    -10.219816
       4A    -10.219755     5A    -10.219241     6A    -10.219214
       7A    -10.215733     8A     -0.853446     9A     -0.774428
      10A     -0.753112    11A     -0.688417    12A     -0.616534
      13A     -0.604060    14A     -0.537895    15A     -0.498115
      16A     -0.458556    17A     -0.456082    18A     -0.437531
      19A     -0.411719    20A     -0.410397    21A     -0.385583
      22A     -0.368991    23A     -0.363109    24A     -0.346515
      25A     -0.341043    26A     -0.314852    27A     -0.301916
      28A     -0.301914

  @DF-RKS Final Energy:  -274.65888376207994

   => Energetics <=

    Nuclear Repulsion Energy =            333.8864631154064568
    One-Electron Energy =               -1030.2780722847012385
    Two-Electron Energy =                 454.3331514489428855
    DFT Exchange-Correlation Energy =     -32.6004260417280918
    Empirical Dispersion Energy =           0.0000000000000000
    VV10 Nonlocal Energy =                  0.0000000000000000
    Total Energy =                       -274.6588837620799382

  Dipole Moment: [D]
     X:     0.0069      Y:    -0.0011      Z:    -0.0296     Total:     0.0304

*** Psi4 exiting successfully. Buy a developer a beer!
