                               Psi4 1.3.2 release

  ==> Input File <==

--------------------------------------------------------------------------
# PBE0/def2-SVP calculation on methylcyclohexane conformer #0

memory 4 gb

molecule {
	    C    -1.0234356357   0.0009048418  -0.3189640376
	    C    -0.3016504725   1.2512069300   0.1757156585
	    C    -0.3016293164  -1.2521964662   0.1685496331
	    C     1.1717605538   1.2570219103  -0.2095145670
	    C     1.1717796282  -1.2557818385  -0.2167126630
	    C     1.8783991150  -0.0007805740   0.2777509362
	    C    -2.4864502525  -0.0002846353   0.0918916097
	    H    -0.9756062537   0.0040494411  -1.4178843959
	    H    -0.3909771196   1.2976695284   1.2698371636
	    H    -0.8000195352   2.1459422893  -0.2124975600
	    H    -0.7999860573  -2.1447040821  -0.2247743989
	    H    -0.3909497910  -1.3049194616   1.2623874470
	    H     1.6635761103   2.1492366019   0.1899652737
	    H     1.2582143370   1.3180165921  -1.3018482314
	    H     1.2582324259  -1.3105151818  -1.3093780496
	    H     1.6636102707  -2.1502630113   0.1776474424
	    H     2.9238751679   0.0001527081  -0.0454293388
	    H     1.8914724966  -0.0039238763   1.3751915645
	    H    -2.5825736891  -0.0033347400   1.1823848264
	    H    -3.0070318959   0.8846786747  -0.2840863566
	    H    -3.0069853235  -0.8831590982  -0.2890289433
}

set basis def2-SVP
energy('pbe0')
--------------------------------------------------------------------------

    Molecular point group: c1

    Geometry (in Angstrom), charge = 0, multiplicity = 1:

       Center              X                  Y                   Z               Mass
    ------------   -----------------  -----------------  -----------------  -----------------
         C           -1.023435635704     0.000904841796    -0.318964037603    12.000000000000
         C           -0.301650472504     1.251206929996     0.175715658497    12.000000000000
         C           -0.301629316404    -1.252196466204     0.168549633097    12.000000000000
         C            1.171760553796     1.257021910296    -0.209514567003    12.000000000000
         C            1.171779628196    -1.255781838504    -0.216712663003    12.000000000000
         C            1.878399114996    -0.000780574004     0.277750936197    12.000000000000
         C           -2.486450252504    -0.000284635304     0.091891609697    12.000000000000
         H           -0.975606253704     0.004049441096    -1.417884395903     1.007825032230
         H           -0.390977119604     1.297669528396     1.269837163597     1.007825032230
         H           -0.800019535204     2.145942289296    -0.212497560003     1.007825032230
         H           -0.799986057304    -2.144704082104    -0.224774398903     1.007825032230
         H           -0.390949791004    -1.304919461604     1.262387446997     1.007825032230
         H            1.663576110296     2.149236601896     0.189965273697     1.007825032230
         H            1.258214336996     1.318016592096    -1.301848231403     1.007825032230
         H            1.258232425896    -1.310515181804    -1.309378049603     1.007825032230
         H            1.663610270696    -2.150263011304     0.177647442397     1.007825032230
         H            2.923875167896     0.000152708096    -0.045429338803     1.007825032230
         H            1.891472496596    -0.003923876304     1.375191564497     1.007825032230
         H           -2.582573689104    -0.003334740004     1.182384826397     1.007825032230
         H           -3.007031895904     0.884678674696    -0.284086356603     1.007825032230
         H           -3.006985323504    -0.883159098204    -0.289028943303     1.007825032230

  Charge       = 0
  Multiplicity = 1
  Basis Set: DEF2-SVP
    Blend: DEF2-SVP
  Basis Set: (DEF2-SVP AUX)
    Blend: DEF2-SVP-JKFIT

    Orbital Energies [Eh]
    ---------------------

    Doubly Occupied:

       1A    -10.226262     2A    -10.220389     3A    -10.220367
       4A    -10.220174     5A    -10.219057     6A    -10.219038
       7A    -10.215961     8A     -0.854223     9A     -0.779033
      10A     -0.753718    11A     -0.685188    12A     -0.618229
      13A     -0.593041    14A     -0.560494    15A     -0.487379
      16A     -0.459537    17A     -0.450266    18A     -0.444229
      19A     -0.423704    20A     -0.393254    21A     -0.386459
      22A     -0.376171    23A     -0.360102    24A     -0.346704
      25A     -0.336853    26A     -0.319397    27A     -0.306888
      28A     -0.302175

  @DF-RKS Final Energy:  -274.66202825303259

   => Energetics <=

    Nuclear Repulsion Energy =            329.9473617733989386
    One-Electron Energy =               -1022.3801356193832817
    Two-Electron Energy =                 450.3707954344180848
    DFT Exchange-Correlation Energy =     -32.6000498414663724
    Empirical Dispersion Energy =           0.0000000000000000
    VV10 Nonlocal Energy =                  0.0000000000000000
    Total Energy =                       -274.6620282530326449

  Dipole Moment: [D]
     X:     0.0451      Y:     0.0002      Z:    -0.0568     Total:     0.0726

*** Psi4 exiting successfully. Buy a developer a beer!
