                               Psi4 1.3.2 release

  ==> Input File <==

--------------------------------------------------------------------------
# PBE0/STO-6G calculation on methylcyclohexane conformer #5

memory 4 gb

molecule {
	    C     0.9720996685   0.0330695729  -0.3318897492
	    C     0.3235569756  -1.3050446844   0.0554571038
	    C     0.2796016137   1.1705482584   0.4083746420
	    C    -1.1703681178  -1.1739962880   0.3782545344
	    C    -1.1870623309   1.3075102013  -0.0197810080
	    C    -1.8008398350  -0.0410841244  -0.4173023050
	    C     2.4717812077   0.0115000082  -0.0918548430
	    H     0.8079059374   0.1951056591  -1.4056578331
	    H     0.8501585016  -1.7189944260   0.9229279740
	    H     0.4706158944  -2.0219579368  -0.7590601820
	    H     0.8106120207   2.1131540195   0.2443816225
	    H     0.3431013654   0.9716027139   1.4853446212
	    H    -1.3044229007  -0.9707204650   1.4466600017
	    H    -1.6833375404  -2.1197620265   0.1839905214
	    H    -1.2647997277   2.0046582787  -0.8596593487
	    H    -1.7639195440   1.7505989654   0.7978190433
	    H    -1.6401819754  -0.2256721328  -1.4853354173
	    H    -2.8844132340  -0.0195483901  -0.2732150587
	    H     2.9471805654   0.9310761445  -0.4436409694
	    H     2.6908179710  -0.0903298775   0.9759217704
	    H     2.9450889639  -0.8290126506  -0.6073234270
}

set basis STO-6G
energy('pbe0')
--------------------------------------------------------------------------

    Molecular point group: c1

    Geometry (in Angstrom), charge = 0, multiplicity = 1:

       Center              X                  Y                   Z               Mass
    ------------   -----------------  -----------------  -----------------  -----------------
         C            0.972099668488     0.033069572888    -0.331889749202    12.000000000000
         C            0.323556975588    -1.305044684412     0.055457103798    12.000000000000
         C            0.279601613688     1.170548258388     0.408374641998    12.000000000000
         C           -1.170368117812    -1.173996288012     0.378254534398    12.000000000000
         C           -1.187062330912     1.307510201288    -0.019781008002    12.000000000000
         C           -1.800839835012    -0.041084124412    -0.417302305002    12.000000000000
         C            2.471781207688     0.011500008188    -0.091854843002    12.000000000000
         H            0.807905937388     0.195105659088    -1.405657833102     1.007825032230
         H            0.850158501588    -1.718994426012     0.922927973998     1.007825032230
         H            0.470615894388    -2.021957936812    -0.759060182002     1.007825032230
         H            0.810612020688     2.113154019488     0.244381622498     1.007825032230
         H            0.343101365388     0.971602713888     1.485344621198     1.007825032230
         H           -1.304422900712    -0.970720465012     1.446660001698     1.007825032230
         H           -1.683337540412    -2.119762026512     0.183990521398     1.007825032230
         H           -1.264799727712     2.004658278688    -0.859659348702     1.007825032230
         H           -1.763919544012     1.750598965388     0.797819043298     1.007825032230
         H           -1.640181975412    -0.225672132812    -1.485335417302     1.007825032230
         H           -2.884413234012    -0.019548390112    -0.273215058702     1.007825032230
         H            2.947180565388     0.931076144488    -0.443640969402     1.007825032230
         H            2.690817970988    -0.090329877512     0.975921770398     1.007825032230
         H            2.945088963888    -0.829012650612    -0.607323427002     1.007825032230

  Charge       = 0
  Multiplicity = 1
  Basis Set: STO-6G
    Blend: STO-6G
  Basis Set: (STO-6G AUX)
    Blend: DEF2-QZVPP-JKFIT

    Orbital Energies [Eh]
    ---------------------

    Doubly Occupied:

       1A    -10.192115     2A    -10.185256     3A    -10.184858
       4A    -10.184570     5A    -10.181888     6A    -10.181708
       7A    -10.179454     8A     -0.819042     9A     -0.746061
      10A     -0.719601    11A     -0.656799    12A     -0.593767
      13A     -0.574997    14A     -0.505003    15A     -0.464994
      16A     -0.442611    17A     -0.417457    18A     -0.390374
      19A     -0.382464    20A     -0.355135    21A     -0.341718
      22A     -0.331838    23A     -0.324215    24A     -0.313734
      25A     -0.311574    26A     -0.265687    27A     -0.261882
      28A     -0.258982

  @DF-RKS Final Energy:  -274.27771407738010

   => Energetics <=

    Nuclear Repulsion Energy =            330.3010527673882848
    One-Electron Energy =               -1024.2014347373278724
    Two-Electron Energy =                 452.4183363460956571
    DFT Exchange-Correlation Energy =     -32.7956684535361518
    Empirical Dispersion Energy =           0.0000000000000000
    VV10 Nonlocal Energy =                  0.0000000000000000
    Total Energy =                       -274.2777140773801534

  Dipole Moment: [D]
     X:    -0.0116      Y:    -0.0046      Z:    -0.0141     Total:     0.0188

*** Psi4 exiting successfully. Buy a developer a beer!
