                               Psi4 1.3.2 release

  ==> Input File <==

--------------------------------------------------------------------------
# PBE0/STO-3G calculation on methylcyclohexane conformer #1

memory 4 gb

molecule {
	    C    -1.1095788642   0.0000421088  -0.5173760840
	    C    -0.2371911735   1.2538500872  -0.6256558751
	    C    -0.2373065295  -1.2538472571  -0.6256133330
	    C     0.9232150254   1.2569141188   0.3629919555
	    C     0.9230786172  -1.2569833692   0.3630567435
	    C     1.7717397798  -0.0000842569   0.2209982710
	    C    -1.9692772405   0.0001028398   0.7417473964
	    H    -1.7957314975   0.0000606184  -1.3728857462
	    H    -0.8538328424   2.1487527424  -0.4904864530
	    H     0.1711017413   1.3094516562  -1.6424906919
	    H     0.1710005695  -1.3095119892  -1.6424391841
	    H    -0.8540315594  -2.1486900871  -0.4904311434
	    H     0.5410089072   1.3223877590   1.3883671425
	    H     1.5377490490   2.1493641079   0.2101511831
	    H     1.5375182250  -2.1495093449   0.2102817571
	    H     0.5408436961  -1.3223517185   1.3884288345
	    H     2.2502712986  -0.0001344288  -0.7670543102
	    H     2.5806050116  -0.0001088940   0.9580214078
	    H    -1.3702856024  -0.0000265841   1.6551935732
	    H    -2.6130476994   0.8833324610   0.7731000135
	    H    -2.6132983885  -0.8829480869   0.7730149087
}

set basis STO-3G
energy('pbe0')
--------------------------------------------------------------------------

    Molecular point group: c1

    Geometry (in Angstrom), charge = 0, multiplicity = 1:

       Center              X                  Y                   Z               Mass
    ------------   -----------------  -----------------  -----------------  -----------------
         C           -1.109578864201     0.000042108780    -0.517376083992    12.000000000000
         C           -0.237191173501     1.253850087180    -0.625655875092    12.000000000000
         C           -0.237306529501    -1.253847257120    -0.625613332992    12.000000000000
         C            0.923215025399     1.256914118780     0.362991955508    12.000000000000
         C            0.923078617199    -1.256983369220     0.363056743508    12.000000000000
         C            1.771739779799    -0.000084256920     0.220998271008    12.000000000000
         C           -1.969277240501     0.000102839780     0.741747396408    12.000000000000
         H           -1.795731497501     0.000060618380    -1.372885746192     1.007825032230
         H           -0.853832842401     2.148752742380    -0.490486452992     1.007825032230
         H            0.171101741299     1.309451656180    -1.642490691892     1.007825032230
         H            0.171000569499    -1.309511989220    -1.642439184092     1.007825032230
         H           -0.854031559401    -2.148690087120    -0.490431143392     1.007825032230
         H            0.541008907199     1.322387758980     1.388367142508     1.007825032230
         H            1.537749048999     2.149364107880     0.210151183108     1.007825032230
         H            1.537518224999    -2.149509344920     0.210281757108     1.007825032230
         H            0.540843696099    -1.322351718520     1.388428834508     1.007825032230
         H            2.250271298599    -0.000134428820    -0.767054310192     1.007825032230
         H            2.580605011599    -0.000108894020     0.958021407808     1.007825032230
         H           -1.370285602401    -0.000026584120     1.655193573208     1.007825032230
         H           -2.613047699401     0.883332460980     0.773100013508     1.007825032230
         H           -2.613298388501    -0.882948086920     0.773014908708     1.007825032230

  Charge       = 0
  Multiplicity = 1
  Basis Set: STO-3G
    Blend: STO-3G
  Basis Set: (STO-3G AUX)
    Blend: DEF2-SVP-JKFIT

    Orbital Energies [Eh]
    ---------------------

    Doubly Occupied:

       1A    -10.051402     2A    -10.042240     3A    -10.041552
       4A    -10.041007     5A    -10.039837     6A    -10.039686
       7A    -10.033156     8A     -0.819805     9A     -0.743110
      10A     -0.722107    11A     -0.659168    12A     -0.587503
      13A     -0.575090    14A     -0.508223    15A     -0.461905
      16A     -0.422744    17A     -0.422684    18A     -0.400392
      19A     -0.374907    20A     -0.372491    21A     -0.345516
      22A     -0.327644    23A     -0.324857    24A     -0.305069
      25A     -0.302736    26A     -0.272580    27A     -0.258506
      28A     -0.257991

  @DF-RKS Final Energy:  -271.63643308247617

   => Energetics <=

    Nuclear Repulsion Energy =            333.8866101250079055
    One-Electron Energy =               -1028.2160599928265583
    Two-Electron Energy =                 455.3629957922577773
    DFT Exchange-Correlation Energy =     -32.6699790069153551
    Empirical Dispersion Energy =           0.0000000000000000
    VV10 Nonlocal Energy =                  0.0000000000000000
    Total Energy =                       -271.6364330824762305

  Dipole Moment: [D]
     X:    -0.0053      Y:    -0.0000      Z:    -0.0532     Total:     0.0535

*** Psi4 exiting successfully. Buy a developer a beer!
