                               Psi4 1.3.2 release

  ==> Input File <==

--------------------------------------------------------------------------
memory 8 gb

molecule {
0 1
 C         -1.0824003554        0.1037113634       -0.4416245879
 C         -0.2690168865        1.2616445818        0.1555739249
 C         -0.2028576263       -1.1495458821       -0.5952662554
 C          1.1787509779        1.2050408820       -0.3184337264
 C          0.8927738356       -1.1856973820        0.4640569944
 C          1.8811406910       -0.0328156030        0.2531980644
 C         -2.3089844765       -0.1821695072        0.4219031429
 H         -1.4314670859        0.4011919545       -1.4367968341
 H         -0.2881228954        1.2042445516        1.2456938264
 H         -0.7224703725        2.2129157777       -0.1298334671
 H          0.2650876061       -1.1588771616       -1.5816140359
 H         -0.8252082976       -2.0432753572       -0.5208571895
 H          1.7113397683        2.1076299367       -0.0130967443
 H          1.1898921172        1.1728446051       -1.4097887724
 H          1.4226395685       -2.1392508283        0.4235571312
 H          0.4353222838       -1.1105025076        1.4519549553
 H          2.6736964391       -0.3444087329       -0.4299239995
 H          2.3519625658        0.2145767642        1.2066888331
 H         -2.8938679820        0.7244917731        0.5629970227
 H         -2.9447687121       -0.9301393533       -0.0473187728
 H         -2.0094754093       -0.5517859885        1.4004095166
}

set basis def2-tzvp
optimize('pbe0')
--------------------------------------------------------------------------

    Molecular point group: c1
  Charge       = 0
  Multiplicity = 1
  Basis Set: DEF2-TZVP
    Blend: DEF2-TZVP
  Basis Set: (DEF2-TZVP AUX)
    Blend: DEF2-TZVP-JKFIT
  @DF-RKS Final Energy:  -274.93624303521887
    Total Energy =                       -274.9362430352188653
    Molecular point group: c1
  Basis Set: DEF2-TZVP
    Blend: DEF2-TZVP
  Basis Set: (DEF2-TZVP AUX)
    Blend: DEF2-TZVP-JKFIT
  Basis Set: DEF2-TZVP
    Blend: DEF2-TZVP
  Basis Set: (DEF2-TZVP AUX)
    Blend: DEF2-TZVP-JKFIT
  @DF-RKS Final Energy:  -274.93674324491974
    Total Energy =                       -274.9367432449197395
  Basis Set: DEF2-TZVP
    Blend: DEF2-TZVP
  Basis Set: (DEF2-TZVP AUX)
    Blend: DEF2-TZVP-JKFIT
  Basis Set: DEF2-TZVP
    Blend: DEF2-TZVP
  @DF-RKS Final Energy:  -274.93678914692441
    Total Energy =                       -274.9367891469244114
  Basis Set: (DEF2-TZVP AUX)
    Blend: DEF2-TZVP-JKFIT
  Basis Set: DEF2-TZVP
    Blend: DEF2-TZVP
  Basis Set: (DEF2-TZVP AUX)
    Blend: DEF2-TZVP-JKFIT
  @DF-RKS Final Energy:  -274.93679134962792
    Total Energy =                       -274.9367913496279243
  Basis Set: DEF2-TZVP
    Blend: DEF2-TZVP
  Basis Set: (DEF2-TZVP AUX)
    Blend: DEF2-TZVP-JKFIT
  Charge       = 0
  Multiplicity = 1
  Basis Set: DEF2-TZVP
    Blend: DEF2-TZVP
  Basis Set: (DEF2-TZVP AUX)
    Blend: DEF2-TZVP-JKFIT

    Orbital Energies [Eh]
    ---------------------

    Doubly Occupied:

       1A    -10.217291     2A    -10.209058     3A    -10.208797
       4A    -10.208685     5A    -10.207580     6A    -10.207459
       7A    -10.202594     8A     -0.859235     9A     -0.781765
      10A     -0.757234    11A     -0.691330    12A     -0.633408
      13A     -0.600815    14A     -0.533462    15A     -0.501747
      16A     -0.487497    17A     -0.449785    18A     -0.425310
      19A     -0.409283    20A     -0.399171    21A     -0.382562
      22A     -0.368443    23A     -0.363411    24A     -0.356478
      25A     -0.343892    26A     -0.305808    27A     -0.303128
      28A     -0.300946

  @DF-RKS Final Energy:  -274.93679150221260

   => Energetics <=

    Nuclear Repulsion Energy =            331.7262651199000061
    One-Electron Energy =               -1026.5655610612259352
    Two-Electron Energy =                 452.5661033810322920
    DFT Exchange-Correlation Energy =     -32.6635989419190196
    Empirical Dispersion Energy =           0.0000000000000000
    VV10 Nonlocal Energy =                  0.0000000000000000
    Total Energy =                       -274.9367915022125999

  Dipole Moment: [D]
     X:     0.0491      Y:     0.0324      Z:    -0.0939     Total:     0.1108

    Molecular point group: c1
  Basis Set: DEF2-TZVP
    Blend: DEF2-TZVP
  Basis Set: (DEF2-TZVP AUX)
    Blend: DEF2-TZVP-JKFIT

  -Total Gradient:
     Atom            X                  Y                   Z
    ------   -----------------  -----------------  -----------------
       1        0.000044956084    -0.000003468249     0.000014491787
       2       -0.000020048916    -0.000028765204    -0.000018374137
       3       -0.000027268058     0.000032789501     0.000014113903
       4        0.000007016682    -0.000001458492     0.000005348250
       5        0.000011591370     0.000013720870    -0.000010604630
       6       -0.000032904835     0.000002025546     0.000010660701
       7       -0.000037942554    -0.000009510711     0.000011041407
       8       -0.000004907767    -0.000000046048    -0.000004146038
       9       -0.000000005263     0.000010175011     0.000005325753
      10        0.000004636770    -0.000000468793     0.000002557204
      11        0.000001983634    -0.000006267421    -0.000002487750
      12        0.000002651041    -0.000006134914     0.000000900357
      13       -0.000003901689     0.000002428889    -0.000001475125
      14       -0.000002640939     0.000000039825    -0.000000187661
      15       -0.000004089224     0.000006176338    -0.000001389808
      16       -0.000005936298    -0.000004229957     0.000004784854
      17       -0.000002050075    -0.000000891049    -0.000006398109
      18        0.000009607823     0.000000322512    -0.000004248047
      19        0.000012018294    -0.000005628984    -0.000001838055
      20        0.000000923075     0.000002656291     0.000002414469
      21        0.000001262541    -0.000000559157    -0.000004718505

  **** Optimization is complete! (in 5 steps) ****
    Final optimized geometry and variables:
    Molecular point group: c1

    Geometry (in Angstrom), charge = 0, multiplicity = 1:

    C           -1.084772572725     0.097661082861    -0.426948619364
    C           -0.269828634164     1.263215643698     0.151846000240
    C           -0.206473199625    -1.159001161459    -0.583525489579
    C            1.176859226464     1.214814985942    -0.315001127747
    C            0.907363257262    -1.191912850760     0.452642405206
    C            1.884698115214    -0.030090666805     0.237459641463
    C           -2.317018337161    -0.175457897165     0.422486191724
    H           -1.425222473487     0.393620460695    -1.426454563456
    H           -0.294385386017     1.216056166209     1.248072640606
    H           -0.739852300453     2.212976259780    -0.119766451456
    H            0.242386053647    -1.179020727639    -1.582727150494
    H           -0.829762623148    -2.055736995359    -0.512726741679
    H            1.713773486888     2.119345087241    -0.017183374672
    H            1.192668780781     1.199986139446    -1.410639178452
    H            1.440144904478    -2.146013810886     0.419718972136
    H            0.466724139915    -1.128367066490     1.453733131221
    H            2.678706333334    -0.335575326336    -0.450870892425
    H            2.377590411270     0.211351537476     1.184211954676
    H           -2.909096713662     0.732801809891     0.566628549409
    H           -2.962218284290    -0.927514741095    -0.039211035940
    H           -2.032928041418    -0.542866824717     1.414018846959

*** Psi4 exiting successfully. Buy a developer a beer!
