                               Psi4 1.3.2 release

  ==> Input File <==

--------------------------------------------------------------------------
memory 8 gb

molecule {
0 1
 C          1.1118855036        0.0000134384       -0.5187609590
 C          0.2329596100       -1.2504061283       -0.6386264810
 C          0.2330846182        1.2505772842       -0.6383427176
 C         -0.9109040286       -1.2483990394        0.3712232338
 C         -0.9112148072        1.2484498895        0.3710538765
 C         -1.7693663058       -0.0000913318        0.1997149655
 C          1.9501015456       -0.0001546565        0.7704668160
 H          1.7993816885        0.0000494257       -1.3725765711
 H          0.8475999555       -2.1436579153       -0.5053040914
 H         -0.1889467715       -1.2871151728       -1.6464105760
 H         -0.1884376855        1.2877884148       -1.6462703483
 H          0.8478102177        2.1436738337       -0.5043735079
 H         -0.5111589374       -1.2717197944        1.3869036561
 H         -1.5208790807       -2.1442508201        0.2340955685
 H         -1.5213106065        2.1441441614        0.2334352695
 H         -0.5120256145        1.2721748753        1.3869439146
 H         -2.2164472095       -0.0002059962       -0.7974631568
 H         -2.5807994833       -0.0001065324        0.9309286431
 H          3.0129373423        0.0054268351        0.5407742013
 H          1.7402389815        0.8757607792        1.3786400641
 H          1.7482078175       -0.8818364430        1.3730086867
}

set basis def2-tzvp
optimize('pbe0')
--------------------------------------------------------------------------

    Molecular point group: c1
  Charge       = 0
  Multiplicity = 1
  Basis Set: DEF2-TZVP
    Blend: DEF2-TZVP
  Basis Set: (DEF2-TZVP AUX)
    Blend: DEF2-TZVP-JKFIT
  @DF-RKS Final Energy:  -274.93961496982359
    Total Energy =                       -274.9396149698236513
    Molecular point group: c1
  Basis Set: DEF2-TZVP
    Blend: DEF2-TZVP
  Basis Set: (DEF2-TZVP AUX)
    Blend: DEF2-TZVP-JKFIT
  Basis Set: DEF2-TZVP
    Blend: DEF2-TZVP
  Basis Set: (DEF2-TZVP AUX)
    Blend: DEF2-TZVP-JKFIT
  @DF-RKS Final Energy:  -274.94014555945489
    Total Energy =                       -274.9401455594548906
  Basis Set: DEF2-TZVP
    Blend: DEF2-TZVP
  Basis Set: (DEF2-TZVP AUX)
    Blend: DEF2-TZVP-JKFIT
  Basis Set: DEF2-TZVP
    Blend: DEF2-TZVP
  @DF-RKS Final Energy:  -274.94018998622613
    Total Energy =                       -274.9401899862261303
  @DF-RKS Final Energy:  -274.94019604655563
    Total Energy =                       -274.9401960465555703
  @DF-RKS Final Energy:  -274.94024843077523
    Total Energy =                       -274.9402484307752275
  @DF-RKS Final Energy:  -274.93123327384558
    Total Energy =                       -274.9312332738455780
  @DF-RKS Final Energy:  -274.94029508869488
    Total Energy =                       -274.9402950886948247
  @DF-RKS Final Energy:  -274.94055188532815
    Total Energy =                       -274.9405518853281478
  @DF-RKS Final Energy:  -274.94070213106107
    Total Energy =                       -274.9407021310610730
  @DF-RKS Final Energy:  -274.94079331824548
    Total Energy =                       -274.9407933182454826
  @DF-RKS Final Energy:  -274.94092357456339
    Total Energy =                       -274.9409235745633850
  @DF-RKS Final Energy:  -274.94104671715547
    Total Energy =                       -274.9410467171554728
  @DF-RKS Final Energy:  -274.94137639709908
    Total Energy =                       -274.9413763970990772
  @DF-RKS Final Energy:  -274.94174185822129
    Total Energy =                       -274.9417418582212917
  @DF-RKS Final Energy:  -274.94208874446167
    Total Energy =                       -274.9420887444616710
  @DF-RKS Final Energy:  -274.94243010837056
    Total Energy =                       -274.9424301083705018
  @DF-RKS Final Energy:  -274.94280105578662
    Total Energy =                       -274.9428010557866173
  @DF-RKS Final Energy:  -274.94316505941759
    Total Energy =                       -274.9431650594175949
  @DF-RKS Final Energy:  -274.94348314051791
    Total Energy =                       -274.9434831405179125
  @DF-RKS Final Energy:  -274.94355639390227
    Total Energy =                       -274.9435563939022700
  @DF-RKS Final Energy:  -274.94374015778760
    Total Energy =                       -274.9437401577875448
  @DF-RKS Final Energy:  -274.94386820674174
    Total Energy =                       -274.9438682067417403
  @DF-RKS Final Energy:  -274.94407569206561
    Total Energy =                       -274.9440756920656099
  @DF-RKS Final Energy:  -274.94416680936934
    Total Energy =                       -274.9441668093693352
  Basis Set: (DEF2-TZVP AUX)
    Blend: DEF2-TZVP-JKFIT
  Basis Set: DEF2-TZVP
    Blend: DEF2-TZVP
  Basis Set: (DEF2-TZVP AUX)
    Blend: DEF2-TZVP-JKFIT
  @DF-RKS Final Energy:  -274.94417566520275
    Total Energy =                       -274.9441756652028062
  Basis Set: DEF2-TZVP
    Blend: DEF2-TZVP
  Basis Set: (DEF2-TZVP AUX)
    Blend: DEF2-TZVP-JKFIT
  Charge       = 0
  Multiplicity = 1
  Basis Set: DEF2-TZVP
    Blend: DEF2-TZVP
  Basis Set: (DEF2-TZVP AUX)
    Blend: DEF2-TZVP-JKFIT

    Orbital Energies [Eh]
    ---------------------

    Doubly Occupied:

       1A    -10.217142     2A    -10.208652     3A    -10.208388
       4A    -10.208273     5A    -10.207773     6A    -10.207759
       7A    -10.202177     8A     -0.859435     9A     -0.781280
      10A     -0.759932    11A     -0.695329    12A     -0.622459
      13A     -0.609567    14A     -0.542111    15A     -0.498265
      16A     -0.459009    17A     -0.458145    18A     -0.437520
      19A     -0.411882    20A     -0.410074    21A     -0.384827
      22A     -0.368437    23A     -0.363332    24A     -0.345898
      25A     -0.341050    26A     -0.315071    27A     -0.301286
      28A     -0.301114

  @DF-RKS Final Energy:  -274.94417801855462

   => Energetics <=

    Nuclear Repulsion Energy =            333.8864618034933756
    One-Electron Energy =               -1030.8785319026032994
    Two-Electron Energy =                 454.7148546425975724
    DFT Exchange-Correlation Energy =     -32.6669625620422579
    Empirical Dispersion Energy =           0.0000000000000000
    VV10 Nonlocal Energy =                  0.0000000000000000
    Total Energy =                       -274.9441780185546236

  Dipole Moment: [D]
     X:    -0.0113      Y:    -0.0030      Z:    -0.0745     Total:     0.0754

    Molecular point group: c1
  Basis Set: DEF2-TZVP
    Blend: DEF2-TZVP
  Basis Set: (DEF2-TZVP AUX)
    Blend: DEF2-TZVP-JKFIT

  -Total Gradient:
     Atom            X                  Y                   Z
    ------   -----------------  -----------------  -----------------
       1       -0.000003875405     0.000016998764    -0.000025772963
       2        0.000006272959    -0.000012709961    -0.000001529510
       3        0.000003713064     0.000005404033    -0.000017305028
       4       -0.000014186507    -0.000006641808     0.000011756393
       5       -0.000000409467    -0.000004850960     0.000021811508
       6       -0.000001635516     0.000005115900    -0.000008897880
       7        0.000006388957    -0.000013480784    -0.000000744937
       8       -0.000000296458     0.000006803332    -0.000001201242
       9        0.000003114702     0.000003585154    -0.000002449105
      10       -0.000004171394     0.000000479182    -0.000000611060
      11       -0.000000114521    -0.000008052002     0.000000399081
      12       -0.000000574436     0.000000935876    -0.000001191458
      13        0.000006380428    -0.000004962049     0.000003739723
      14       -0.000000092047     0.000004433255    -0.000000746309
      15        0.000004904316    -0.000001715017    -0.000002964545
      16        0.000010426454    -0.000000425760     0.000007158034
      17       -0.000013641853    -0.000004115805    -0.000008171322
      18        0.000005651936     0.000003625188     0.000001602430
      19        0.000001706241    -0.000000005375    -0.000011038504
      20       -0.000000257514     0.000003355370     0.000000171283
      21        0.000001309635     0.000004712613    -0.000003582847

  **** Optimization is complete! (in 26 steps) ****
    Final optimized geometry and variables:
    Molecular point group: c1

    Geometry (in Angstrom), charge = 0, multiplicity = 1:

    C            1.096739167114    -0.018949719533    -0.544252299038
    C            0.224811613290    -1.277326216788    -0.581555247064
    C            0.218666684905     1.228140393741    -0.681251174856
    C           -0.910727088397    -1.243018151357     0.435143028635
    C           -0.916590019167     1.269105264164     0.335473938564
    C           -1.765618344686     0.006301131918     0.265229403535
    C            1.986164356731     0.032476640953     0.692960357333
    H            1.761976196048    -0.051959313005    -1.415512128641
    H            0.847013353202    -2.165166785464    -0.426821742118
    H           -0.208425006851    -1.373240279110    -1.584922150719
    H           -0.215066196552     1.241716711552    -1.688881193586
    H            0.836423916724     2.128570429419    -0.597896344220
    H           -0.502916372747    -1.267547078600     1.452381858289
    H           -1.526781939751    -2.141643730885     0.332927269988
    H           -1.536813140493     2.153978486487     0.162780343136
    H           -0.508808758319     1.375857569836     1.347407804347
    H           -2.269148592003    -0.033567839342    -0.709474623309
    H           -2.555470789457     0.034502410212     1.022093377906
    H            2.628692037787     0.916941254303     0.673608978584
    H            1.409142524940     0.068322436933     1.619748224837
    H            2.632625440530    -0.847821120931     0.744293398860

*** Psi4 exiting successfully. Buy a developer a beer!
