                               Psi4 1.3.2 release

  ==> Input File <==

--------------------------------------------------------------------------
memory 8 gb

molecule {
0 1
 C          1.0823955212       -0.1035951742       -0.4416816538
 C          0.2691629628       -1.2616360470        0.1554829157
 C          0.2026957812        1.1495472537       -0.5952578259
 C         -1.1787150502       -1.2052290638       -0.3181965494
 C         -0.8926846169        1.1855586857        0.4643103732
 C         -1.8811666677        0.0329166053        0.2528454357
 C          2.3089221254        0.1823003064        0.4219249613
 H          1.4315380254       -0.4010036466       -1.4368553967
 H          0.2885384641       -1.2044568405        1.2456164044
 H          0.7226119409       -2.2128245173       -0.1302090563
 H         -0.2655292558        1.1587440953       -1.5815055524
 H          0.8249450791        2.0433624172       -0.5210823810
 H         -1.7110998390       -2.1076907602       -0.0122246849
 H         -1.1901016023       -1.1736630325       -1.4095646190
 H         -1.4224766894        2.1391966413        0.4243343370
 H         -0.4350716147        1.1098498437        1.4521139814
 H         -2.6729737286        0.3447737619       -0.4310695573
 H         -2.3530211344       -0.2141204424        1.2059625307
 H          2.8939752582       -0.7242630564        0.5628383092
 H          2.9445379322        0.9305012436       -0.0470731806
 H          2.0093743318        0.5515692091        1.4005508085
}

set basis def2-tzvp
optimize('pbe0')
--------------------------------------------------------------------------

    Molecular point group: c1
  Charge       = 0
  Multiplicity = 1
  Basis Set: DEF2-TZVP
    Blend: DEF2-TZVP
  Basis Set: (DEF2-TZVP AUX)
    Blend: DEF2-TZVP-JKFIT
  @DF-RKS Final Energy:  -274.93624319405859
    Total Energy =                       -274.9362431940585907
    Molecular point group: c1
  Basis Set: DEF2-TZVP
    Blend: DEF2-TZVP
  Basis Set: (DEF2-TZVP AUX)
    Blend: DEF2-TZVP-JKFIT
  Basis Set: DEF2-TZVP
    Blend: DEF2-TZVP
  Basis Set: (DEF2-TZVP AUX)
    Blend: DEF2-TZVP-JKFIT
  @DF-RKS Final Energy:  -274.93674325458562
    Total Energy =                       -274.9367432545856218
  Basis Set: DEF2-TZVP
    Blend: DEF2-TZVP
  Basis Set: (DEF2-TZVP AUX)
    Blend: DEF2-TZVP-JKFIT
  Basis Set: DEF2-TZVP
    Blend: DEF2-TZVP
  @DF-RKS Final Energy:  -274.93678916741641
    Total Energy =                       -274.9367891674164639
  Basis Set: (DEF2-TZVP AUX)
    Blend: DEF2-TZVP-JKFIT
  Basis Set: DEF2-TZVP
    Blend: DEF2-TZVP
  Basis Set: (DEF2-TZVP AUX)
    Blend: DEF2-TZVP-JKFIT
  @DF-RKS Final Energy:  -274.93678775387161
    Total Energy =                       -274.9367877538716129
  Basis Set: DEF2-TZVP
    Blend: DEF2-TZVP
  Basis Set: (DEF2-TZVP AUX)
    Blend: DEF2-TZVP-JKFIT
  Charge       = 0
  Multiplicity = 1
  Basis Set: DEF2-TZVP
    Blend: DEF2-TZVP
  Basis Set: (DEF2-TZVP AUX)
    Blend: DEF2-TZVP-JKFIT

    Orbital Energies [Eh]
    ---------------------

    Doubly Occupied:

       1A    -10.217292     2A    -10.209057     3A    -10.208793
       4A    -10.208682     5A    -10.207581     6A    -10.207453
       7A    -10.202589     8A     -0.859246     9A     -0.781764
      10A     -0.757244    11A     -0.691332    12A     -0.633406
      13A     -0.600819    14A     -0.533460    15A     -0.501753
      16A     -0.487509    17A     -0.449779    18A     -0.425314
      19A     -0.409294    20A     -0.399157    21A     -0.382579
      22A     -0.368438    23A     -0.363390    24A     -0.356489
      25A     -0.343902    26A     -0.305807    27A     -0.303131
      28A     -0.300944

  @DF-RKS Final Energy:  -274.93679131415308

   => Energetics <=

    Nuclear Repulsion Energy =            331.7325397896549362
    One-Electron Energy =               -1026.5780130842895232
    Two-Electron Energy =                 452.5723246456387301
    DFT Exchange-Correlation Energy =     -32.6636426651572549
    Empirical Dispersion Energy =           0.0000000000000000
    VV10 Nonlocal Energy =                  0.0000000000000000
    Total Energy =                       -274.9367913141530835

  Dipole Moment: [D]
     X:    -0.0491      Y:    -0.0324      Z:    -0.0940     Total:     0.1109

    Molecular point group: c1
  Basis Set: DEF2-TZVP
    Blend: DEF2-TZVP
  Basis Set: (DEF2-TZVP AUX)
    Blend: DEF2-TZVP-JKFIT

  -Total Gradient:
     Atom            X                  Y                   Z
    ------   -----------------  -----------------  -----------------
       1       -0.000064031944     0.000016389015     0.000010632106
       2        0.000016350281     0.000020639800    -0.000032161782
       3        0.000027449119    -0.000046084600     0.000034504168
       4       -0.000008828016     0.000015903146     0.000030438138
       5        0.000002157339    -0.000003185016    -0.000019193996
       6        0.000046489866    -0.000014767413    -0.000022770965
       7        0.000040450622     0.000001965983     0.000011836087
       8        0.000016806213     0.000004003031    -0.000000667255
       9       -0.000006883187    -0.000009631027     0.000006288866
      10       -0.000003486274    -0.000004223665     0.000008685312
      11       -0.000010834413     0.000011606225     0.000005257294
      12       -0.000013282076     0.000011473187    -0.000001723832
      13        0.000004858490    -0.000001356844    -0.000004199657
      14        0.000006408077    -0.000003561878    -0.000002204551
      15        0.000010468868    -0.000002146119    -0.000001392445
      16        0.000009634655     0.000005168604    -0.000001331429
      17       -0.000004928471    -0.000004442847     0.000000142192
      18       -0.000003238718    -0.000000575493     0.000000088859
      19       -0.000012107557     0.000010398396     0.000000430755
      20       -0.000006819475    -0.000007065442     0.000002891795
      21       -0.000001693111    -0.000003720863    -0.000009774867

  **** Optimization is complete! (in 5 steps) ****
    Final optimized geometry and variables:
    Molecular point group: c1

    Geometry (in Angstrom), charge = 0, multiplicity = 1:

    C            1.084971740855    -0.097833862292    -0.426580745212
    C            0.269497529012    -1.263450725955     0.151415323869
    C            0.206884613597     1.158858276098    -0.583665935237
    C           -1.177021580262    -1.214389138756    -0.315793695072
    C           -0.907077548069     1.192177782562     0.452275610653
    C           -1.884538778282     0.030379634288     0.237213673807
    C            2.316510178314     0.175047308430     0.423959343376
    H            1.426357976595    -0.393595619870    -1.425824788128
    H            0.293619497281    -1.216685639682     1.247675591954
    H            0.739351317276    -2.213262097652    -0.120318086271
    H           -0.241895057079     1.178654571290    -1.582905354147
    H            0.830188792807     2.055599827814    -0.513080176860
    H           -1.714306660072    -2.118904669781    -0.018605558705
    H           -1.192550905174    -1.198990010955    -1.411434187420
    H           -1.439663862950     2.146375742242     0.419073371652
    H           -0.466568315362     1.128781933573     1.453425714333
    H           -2.679026016312     0.335946332909    -0.450521769872
    H           -2.376820342724    -0.211335340828     1.184223575408
    H            2.908448462772    -0.733247693045     0.568400207556
    H            2.962100145352     0.927191729125    -0.037026831084
    H            2.031593586828     0.542209753732     1.415335489336

*** Psi4 exiting successfully. Buy a developer a beer!
