                               Psi4 1.3.2 release

  ==> Input File <==

--------------------------------------------------------------------------
memory 8 gb

molecule {
0 1
 C         -0.9640429411       -0.0297123223       -0.3436080720
 C         -0.3228885835        1.3115921127        0.0471203850
 C         -0.2750308466       -1.1633006992        0.4142935280
 C          1.1624121560        1.1597825433        0.3970332832
 C          1.1835513177       -1.3112596719       -0.0356766861
 C          1.7910352795        0.0417204134       -0.4263085728
 C         -2.4654730997       -0.0105775914       -0.0722169089
 H         -0.8142035248       -0.1997298515       -1.4151397719
 H         -0.8523645904        1.7298587988        0.9058744857
 H         -0.4377434992        2.0153007624       -0.7799025018
 H         -0.8076095211       -2.1019227402        0.2494581018
 H         -0.3196401028       -0.9466952597        1.4834891044
 H          1.2773202948        0.9230131366        1.4564763107
 H          1.6827076842        2.1019389513        0.2146035695
 H          1.2404652394       -1.9901349599       -0.8888914390
 H          1.7636692401       -1.7575671349        0.7744866074
 H          1.6138230170        0.2419932735       -1.4847844294
 H          2.8716608262        0.0208832462       -0.2738184456
 H         -2.6586143973        0.0926005099        0.9939024797
 H         -2.9352769873        0.8238140747       -0.5887885570
 H         -2.9298436261       -0.9324361570       -0.4162188960
}

set basis def2-tzvp
optimize('pbe0')
--------------------------------------------------------------------------

    Molecular point group: c1
  Charge       = 0
  Multiplicity = 1
  Basis Set: DEF2-TZVP
    Blend: DEF2-TZVP
  Basis Set: (DEF2-TZVP AUX)
    Blend: DEF2-TZVP-JKFIT
  @DF-RKS Final Energy:  -274.93682786355259
    Total Energy =                       -274.9368278635525940
    Molecular point group: c1
  Basis Set: DEF2-TZVP
    Blend: DEF2-TZVP
  Basis Set: (DEF2-TZVP AUX)
    Blend: DEF2-TZVP-JKFIT
  Basis Set: DEF2-TZVP
    Blend: DEF2-TZVP
  Basis Set: (DEF2-TZVP AUX)
    Blend: DEF2-TZVP-JKFIT
  @DF-RKS Final Energy:  -274.93740519198030
    Total Energy =                       -274.9374051919803037
  Basis Set: DEF2-TZVP
    Blend: DEF2-TZVP
  Basis Set: (DEF2-TZVP AUX)
    Blend: DEF2-TZVP-JKFIT
  Basis Set: DEF2-TZVP
    Blend: DEF2-TZVP
  @DF-RKS Final Energy:  -274.93746372311404
    Total Energy =                       -274.9374637231140355
  Basis Set: (DEF2-TZVP AUX)
    Blend: DEF2-TZVP-JKFIT
  Basis Set: DEF2-TZVP
    Blend: DEF2-TZVP
  Basis Set: (DEF2-TZVP AUX)
    Blend: DEF2-TZVP-JKFIT
  @DF-RKS Final Energy:  -274.93746536840354
    Total Energy =                       -274.9374653684035366
  Basis Set: DEF2-TZVP
    Blend: DEF2-TZVP
  Basis Set: (DEF2-TZVP AUX)
    Blend: DEF2-TZVP-JKFIT
  Charge       = 0
  Multiplicity = 1
  Basis Set: DEF2-TZVP
    Blend: DEF2-TZVP
  Basis Set: (DEF2-TZVP AUX)
    Blend: DEF2-TZVP-JKFIT

    Orbital Energies [Eh]
    ---------------------

    Doubly Occupied:

       1A    -10.216574     2A    -10.209355     3A    -10.209020
       4A    -10.208755     5A    -10.207978     6A    -10.207424
       7A    -10.202808     8A     -0.859183     9A     -0.783356
      10A     -0.756625    11A     -0.691435    12A     -0.627366
      13A     -0.608049    14A     -0.536484    15A     -0.500534
      16A     -0.479625    17A     -0.453241    18A     -0.425480
      19A     -0.417314    20A     -0.390760    21A     -0.381212
      22A     -0.372403    23A     -0.362661    24A     -0.352292
      25A     -0.348334    26A     -0.307894    27A     -0.302150
      28A     -0.300083

  @DF-RKS Final Energy:  -274.93746453280255

   => Energetics <=

    Nuclear Repulsion Energy =            330.3007060131176900
    One-Electron Energy =               -1023.7113759109090552
    Two-Electron Energy =                 451.1366667388228961
    DFT Exchange-Correlation Energy =     -32.6634613738340676
    Empirical Dispersion Energy =           0.0000000000000000
    VV10 Nonlocal Energy =                  0.0000000000000000
    Total Energy =                       -274.9374645328026077

  Dipole Moment: [D]
     X:     0.1012      Y:    -0.0063      Z:    -0.0818     Total:     0.1303

    Molecular point group: c1
  Basis Set: DEF2-TZVP
    Blend: DEF2-TZVP
  Basis Set: (DEF2-TZVP AUX)
    Blend: DEF2-TZVP-JKFIT

  -Total Gradient:
     Atom            X                  Y                   Z
    ------   -----------------  -----------------  -----------------
       1        0.000077873468     0.000037748986     0.000046967059
       2       -0.000039747188    -0.000081172605    -0.000039262793
       3       -0.000036608229     0.000014667870    -0.000039344056
       4        0.000018169657     0.000030831802    -0.000005225726
       5        0.000021572951     0.000021947908    -0.000037073716
       6       -0.000015515302    -0.000038282760     0.000020263911
       7       -0.000022925471     0.000001792226    -0.000001035025
       8       -0.000010309915     0.000001190878    -0.000028856910
       9       -0.000013811848     0.000013601855     0.000020714560
      10        0.000004373565     0.000013162857    -0.000001032206
      11        0.000003848007    -0.000003629690    -0.000000566611
      12        0.000008639089     0.000004765922     0.000034420831
      13       -0.000011935507     0.000002740459     0.000031213014
      14       -0.000012284889     0.000008045717     0.000009533420
      15        0.000002990132    -0.000016461501     0.000000579687
      16        0.000006995899    -0.000005451107     0.000011197307
      17        0.000009524249    -0.000001649329    -0.000033995654
      18       -0.000004585703    -0.000009653835     0.000003805918
      19        0.000009019234     0.000001781174     0.000045404915
      20        0.000000699114     0.000023337037    -0.000018869142
      21        0.000006536797    -0.000033413509    -0.000021634350

  **** Optimization is complete! (in 5 steps) ****
    Final optimized geometry and variables:
    Molecular point group: c1

    Geometry (in Angstrom), charge = 0, multiplicity = 1:

    C           -0.972211014391    -0.032717814643    -0.331739422209
    C           -0.323057600348     1.305176340718     0.054946501819
    C           -0.279935814812    -1.170354969940     0.408402076508
    C            1.170749167039     1.173553327504     0.378059613878
    C            1.186524382695    -1.308014139835    -0.020210212822
    C            1.800920226747     0.040362005567    -0.417461604997
    C           -2.471779883685    -0.010550696375    -0.090839237753
    H           -0.808784467473    -0.195023687970    -1.405629539166
    H           -0.849521212962     1.719932900083     0.922169069395
    H           -0.469545408341     2.021837388391    -0.759922113358
    H           -0.811372844106    -2.112780446843     0.244763956921
    H           -0.342858700161    -0.971223020572     1.485430836542
    H            1.304395219150     0.970210760071     1.446548453093
    H            1.684038746152     2.119180813103     0.183993157805
    H            1.263662428002    -2.005093215836    -0.860218451627
    H            1.763297398323    -1.751636153856     0.797190850037
    H            1.640745476951     0.225106065369    -1.485592687308
    H            2.884428402518     0.018300110406    -0.273017168956
    H           -2.690036002059     0.090333779764     0.977260373529
    H           -2.944858979248     0.830783944343    -0.605267979101
    H           -2.947742083396    -0.929615081637    -0.443356891489

*** Psi4 exiting successfully. Buy a developer a beer!
