                               Psi4 1.3.2 release

  ==> Input File <==

--------------------------------------------------------------------------
memory 8 gb

molecule {
0 1
 C         -1.0139237009        0.0001157060       -0.3320119090
 C         -0.3010211074        1.2491572923        0.1879180723
 C         -0.3011951696       -1.2490517349        0.1878718396
 C          1.1683390004        1.2516621049       -0.2233071254
 C          1.1681695646       -1.2517772582       -0.2232981267
 C          1.8703096243       -0.0000923733        0.2934985390
 C         -2.4834630882        0.0000222911        0.0795247173
 H         -0.9582190930        0.0002005854       -1.4269602139
 H         -0.3718670923        1.2740378936        1.2781840671
 H         -0.7951641526        2.1435985756       -0.1985907954
 H         -0.7954642203       -2.1434127996       -0.1986469736
 H         -0.3720420205       -1.2738839625        1.2781559690
 H          1.6616052523        2.1443202680        0.1678151692
 H          1.2391547021        1.2815104197       -1.3133695212
 H          1.2390062002       -1.2817145988       -1.3133390411
 H          1.6612233508       -2.1444918905        0.1679208818
 H          2.9153982958       -0.0001245162       -0.0238784763
 H          1.8521966765       -0.0001224730        1.3859698783
 H         -2.5743116471        0.0004900512        1.1639789401
 H         -2.9899376694        0.8819226593       -0.3066017637
 H         -2.9892458557       -0.8827595520       -0.3054682049
}

set basis def2-tzvp
optimize('pbe0')
--------------------------------------------------------------------------

    Molecular point group: c1
  Charge       = 0
  Multiplicity = 1
  Basis Set: DEF2-TZVP
    Blend: DEF2-TZVP
  Basis Set: (DEF2-TZVP AUX)
    Blend: DEF2-TZVP-JKFIT
  @DF-RKS Final Energy:  -274.94666388243559
    Total Energy =                       -274.9466638824355869
    Molecular point group: c1
  Basis Set: DEF2-TZVP
    Blend: DEF2-TZVP
  Basis Set: (DEF2-TZVP AUX)
    Blend: DEF2-TZVP-JKFIT
  Basis Set: DEF2-TZVP
    Blend: DEF2-TZVP
  Basis Set: (DEF2-TZVP AUX)
    Blend: DEF2-TZVP-JKFIT
  @DF-RKS Final Energy:  -274.94746508233368
    Total Energy =                       -274.9474650823336788
  Basis Set: DEF2-TZVP
    Blend: DEF2-TZVP
  Basis Set: (DEF2-TZVP AUX)
    Blend: DEF2-TZVP-JKFIT
  Basis Set: DEF2-TZVP
    Blend: DEF2-TZVP
  Basis Set: (DEF2-TZVP AUX)
    Blend: DEF2-TZVP-JKFIT
  @DF-RKS Final Energy:  -274.94752660735202
    Total Energy =                       -274.9475266073520743
  Basis Set: DEF2-TZVP
    Blend: DEF2-TZVP
  Basis Set: (DEF2-TZVP AUX)
    Blend: DEF2-TZVP-JKFIT
  Charge       = 0
  Multiplicity = 1
  Basis Set: DEF2-TZVP
    Blend: DEF2-TZVP
  Basis Set: (DEF2-TZVP AUX)
    Blend: DEF2-TZVP-JKFIT

    Orbital Energies [Eh]
    ---------------------

    Doubly Occupied:

       1A    -10.216601     2A    -10.209184     3A    -10.209088
       4A    -10.208784     5A    -10.207811     6A    -10.207800
       7A    -10.202532     8A     -0.860223     9A     -0.785739
      10A     -0.760521    11A     -0.691943    12A     -0.623999
      13A     -0.598772    14A     -0.564381    15A     -0.487525
      16A     -0.459636    17A     -0.450501    18A     -0.446312
      19A     -0.423623    20A     -0.393270    21A     -0.385639
      22A     -0.375552    23A     -0.359248    24A     -0.346769
      25A     -0.336910    26A     -0.320125    27A     -0.305755
      28A     -0.301326

  @DF-RKS Final Energy:  -274.94752773209950

   => Energetics <=

    Nuclear Repulsion Energy =            329.9473604762781065
    One-Electron Energy =               -1022.9812583554911498
    Two-Electron Energy =                 450.7518126756682477
    DFT Exchange-Correlation Energy =     -32.6654425285547063
    Empirical Dispersion Energy =           0.0000000000000000
    VV10 Nonlocal Energy =                  0.0000000000000000
    Total Energy =                       -274.9475277320995588

  Dipole Moment: [D]
     X:     0.0935      Y:     0.0002      Z:    -0.0828     Total:     0.1249

    Molecular point group: c1
  Basis Set: DEF2-TZVP
    Blend: DEF2-TZVP
  Basis Set: (DEF2-TZVP AUX)
    Blend: DEF2-TZVP-JKFIT

  -Total Gradient:
     Atom            X                  Y                   Z
    ------   -----------------  -----------------  -----------------
       1        0.000119819302     0.000000418590     0.000074480459
       2       -0.000040187975    -0.000042775390    -0.000056230774
       3       -0.000040207758     0.000042892068    -0.000056238748
       4        0.000024499030    -0.000009083871     0.000023324762
       5        0.000024111208     0.000008959036     0.000022996433
       6       -0.000036227627     0.000000128333    -0.000024933394
       7       -0.000096228070    -0.000000682924     0.000009002031
       8       -0.000006189143     0.000000083684    -0.000020119386
       9        0.000002368901     0.000001347623     0.000023540877
      10        0.000009161540     0.000005512356     0.000001487011
      11        0.000009088135    -0.000005800972     0.000001533443
      12        0.000002435784    -0.000001228746     0.000023195527
      13       -0.000002454693    -0.000010563874     0.000003266456
      14       -0.000003468907    -0.000000064542    -0.000014464762
      15       -0.000003340373     0.000000140784    -0.000014456316
      16       -0.000002515442     0.000010515457     0.000003330024
      17       -0.000001483640    -0.000000075401     0.000000976550
      18       -0.000001550879     0.000000012232     0.000016679952
      19        0.000018232971     0.000000361114     0.000002377529
      20        0.000003311740     0.000006311072    -0.000007979672
      21        0.000003235857    -0.000006413966    -0.000007530159

  **** Optimization is complete! (in 4 steps) ****
    Final optimized geometry and variables:
    Molecular point group: c1

    Geometry (in Angstrom), charge = 0, multiplicity = 1:

    C           -1.023435639718     0.000904841840    -0.318964038865
    C           -0.301650473674     1.251206934958     0.175715659184
    C           -0.301629317578    -1.252196471170     0.168549633763
    C            1.171760558400     1.257021915206    -0.209514567810
    C            1.171779632767    -1.255781843426    -0.216712663832
    C            1.878399122396    -0.000780573994     0.277750937278
    C           -2.486450262296    -0.000284635341     0.091891610036
    H           -0.975606257497     0.004049441078    -1.417884401433
    H           -0.390977121095     1.297669533501     1.269837168616
    H           -0.800019538394     2.145942297768    -0.212497560847
    H           -0.799986060410    -2.144704090497    -0.224774399832
    H           -0.390949792571    -1.304919466766     1.262387451956
    H            1.663576116839     2.149236610311     0.189965274418
    H            1.258214341938     1.318016597325    -1.301848236516
    H            1.258232430866    -1.310515186917    -1.309378054724
    H            1.663610277224    -2.150263019739     0.177647443120
    H            2.923875179362     0.000152708129    -0.045429338949
    H            1.891472504076    -0.003923876358     1.375191569942
    H           -2.582573699260    -0.003334740039     1.182384831001
    H           -3.007031907723     0.884678678132    -0.284086357753
    H           -3.006985335337    -0.883159101714    -0.289028944471

*** Psi4 exiting successfully. Buy a developer a beer!
