                               Psi4 1.3.2 release

  ==> Input File <==

--------------------------------------------------------------------------
memory 8 gb

molecule {
0 1
 C          1.1122459188        0.0000568036       -0.5144886837
 C          0.2383102248       -1.2536147504       -0.6290680665
 C          0.2382940818        1.2537314373       -0.6289941809
 C         -0.9170128478       -1.2517762782        0.3681562966
 C         -0.9170459445        1.2517261748        0.3682098339
 C         -1.7707282619       -0.0000352632        0.1946205243
 C          1.9520541251       -0.0001017567        0.7615182816
 H          1.8101577901        0.0001279764       -1.3614705513
 H          0.8541806326       -2.1435326342       -0.4803873019
 H         -0.1734239491       -1.3010169529       -1.6406156265
 H         -0.1733819216        1.3013620810       -1.6405635568
 H          0.8541442683        2.1436202352       -0.4800688497
 H         -0.5295425838       -1.2905078071        1.3876321247
 H         -1.5294907966       -2.1434780588        0.2153006724
 H         -1.5295624548        2.1433887004        0.2152997842
 H         -0.5296224667        1.2904902096        1.3877040945
 H         -2.2124479811       -0.0000076093       -0.8050687998
 H         -2.5867077205       -0.0000578636        0.9208763751
 H          2.5892654805       -0.8817040654        0.7917396731
 H          2.5882984443        0.8820793037        0.7924505851
 H          1.3294142929       -0.0006010560        1.6510680350
}

set basis def2-tzvp
optimize('pbe0')
--------------------------------------------------------------------------

    Molecular point group: c1
  Charge       = 0
  Multiplicity = 1
  Basis Set: DEF2-TZVP
    Blend: DEF2-TZVP
  Basis Set: (DEF2-TZVP AUX)
    Blend: DEF2-TZVP-JKFIT
  @DF-RKS Final Energy:  -274.94362476543091
    Total Energy =                       -274.9436247654309113
    Molecular point group: c1
  Basis Set: DEF2-TZVP
    Blend: DEF2-TZVP
  Basis Set: (DEF2-TZVP AUX)
    Blend: DEF2-TZVP-JKFIT
  Basis Set: DEF2-TZVP
    Blend: DEF2-TZVP
  Basis Set: (DEF2-TZVP AUX)
    Blend: DEF2-TZVP-JKFIT
  @DF-RKS Final Energy:  -274.94413038202106
    Total Energy =                       -274.9441303820211147
  Basis Set: DEF2-TZVP
    Blend: DEF2-TZVP
  Basis Set: (DEF2-TZVP AUX)
    Blend: DEF2-TZVP-JKFIT
  Basis Set: DEF2-TZVP
    Blend: DEF2-TZVP
  Basis Set: (DEF2-TZVP AUX)
    Blend: DEF2-TZVP-JKFIT
  @DF-RKS Final Energy:  -274.94417669759486
    Total Energy =                       -274.9441766975948553
  Basis Set: DEF2-TZVP
    Blend: DEF2-TZVP
  Basis Set: (DEF2-TZVP AUX)
    Blend: DEF2-TZVP-JKFIT
  Charge       = 0
  Multiplicity = 1
  Basis Set: DEF2-TZVP
    Blend: DEF2-TZVP
  Basis Set: (DEF2-TZVP AUX)
    Blend: DEF2-TZVP-JKFIT

    Orbital Energies [Eh]
    ---------------------

    Doubly Occupied:

       1A    -10.217134     2A    -10.208631     3A    -10.208373
       4A    -10.208256     5A    -10.207768     6A    -10.207755
       7A    -10.202173     8A     -0.859461     9A     -0.781308
      10A     -0.759967    11A     -0.695311    12A     -0.622466
      13A     -0.609577    14A     -0.542115    15A     -0.498283
      16A     -0.459009    17A     -0.458148    18A     -0.437504
      19A     -0.411895    20A     -0.410121    21A     -0.384841
      22A     -0.368443    23A     -0.363299    24A     -0.345903
      25A     -0.341037    26A     -0.315044    27A     -0.301272
      28A     -0.301154

  @DF-RKS Final Energy:  -274.94417733460114

   => Energetics <=

    Nuclear Repulsion Energy =            333.8877705509604539
    One-Electron Energy =               -1030.8809279011970830
    Two-Electron Energy =                 454.7160781168001904
    DFT Exchange-Correlation Energy =     -32.6670981011647115
    Empirical Dispersion Energy =           0.0000000000000000
    VV10 Nonlocal Energy =                  0.0000000000000000
    Total Energy =                       -274.9441773346011360

  Dipole Moment: [D]
     X:    -0.0092      Y:     0.0000      Z:    -0.0751     Total:     0.0757

    Molecular point group: c1
  Basis Set: DEF2-TZVP
    Blend: DEF2-TZVP
  Basis Set: (DEF2-TZVP AUX)
    Blend: DEF2-TZVP-JKFIT

  -Total Gradient:
     Atom            X                  Y                   Z
    ------   -----------------  -----------------  -----------------
       1       -0.000140905373     0.000000494854    -0.000049829621
       2        0.000046369219     0.000061161165     0.000066245175
       3        0.000046629723    -0.000061400887     0.000065643655
       4        0.000001963612     0.000008464636    -0.000008245945
       5        0.000002222124    -0.000008556215    -0.000008041035
       6        0.000065495282    -0.000000104192    -0.000044326691
       7        0.000026831344    -0.000000054996    -0.000003603553
       8        0.000012035718     0.000000136687     0.000023559019
       9       -0.000036599425    -0.000029065907     0.000007561549
      10       -0.000008929429    -0.000013726180    -0.000023261944
      11       -0.000008931849     0.000013857661    -0.000023593233
      12       -0.000036740741     0.000029044421     0.000007632476
      13        0.000009139415    -0.000013866178     0.000011075067
      14        0.000005472513     0.000012284420     0.000001030214
      15        0.000005770725    -0.000012366625     0.000000919337
      16        0.000009079542     0.000013915278     0.000011384049
      17       -0.000020679189    -0.000000023680    -0.000017806204
      18        0.000023740664     0.000000007031    -0.000004759670
      19        0.000002841284    -0.000011674551    -0.000015517686
      20        0.000002529122     0.000011595432    -0.000015717073
      21        0.000003661654    -0.000000119478    -0.000019894259

  **** Optimization is complete! (in 4 steps) ****
    Final optimized geometry and variables:
    Molecular point group: c1

    Geometry (in Angstrom), charge = 0, multiplicity = 1:

    C            1.113486588636     0.000060195409    -0.508908710667
    C            0.242039069166    -1.253794407077    -0.623887365285
    C            0.241979281885     1.253886466708    -0.623726321992
    C           -0.925857206493    -1.256988274290     0.355891084385
    C           -0.925913898112     1.256897189233     0.356056268161
    C           -1.773369041867    -0.000055011559     0.207509205331
    C            1.963570983849    -0.000002532935     0.756725950536
    H            1.806140156432     0.000132703916    -1.359162978209
    H            0.857683610616    -2.148669991246    -0.484086158785
    H           -0.158514903198    -1.309374192585    -1.643793534148
    H           -0.158579003475     1.309578924508    -1.643625114018
    H            0.857580142065     2.148774025694    -0.483810199123
    H           -0.551467578262    -1.322481887274     1.384129722853
    H           -1.539127039840    -2.149484881763     0.198343373706
    H           -1.539223589251     2.149386906988     0.198626879723
    H           -0.551525347208     1.322272258199     1.384303222238
    H           -2.244370204225    -0.000000504076    -0.784145499167
    H           -2.587822440786    -0.000121624338     0.938349505609
    H            2.607234233895    -0.883121318544     0.792882975244
    H            2.607160087146     0.883164387158     0.793017564335
    H            1.357633603225    -0.000097974711     1.665563540705

*** Psi4 exiting successfully. Buy a developer a beer!
