                               Psi4 1.3.2 release

  ==> Input File <==

--------------------------------------------------------------------------
memory 8 gb

molecule {
0 1
 C         -1.1122489933        0.0000218520       -0.5145028626
 C         -0.2381762340        1.2535580831       -0.6292216260
 C         -0.2383878558       -1.2536845533       -0.6291281493
 C          0.9168555920        1.2517068211        0.3683094805
 C          0.9170256308       -1.2518884771        0.3680177133
 C          1.7706256887        0.0000071118        0.1948357043
 C         -1.9518436195        0.0002668996        0.7616216833
 H         -1.8103144381        0.0000432832       -1.3613412862
 H         -0.8539509457        2.1435680290       -0.4808316759
 H          0.1737815084        1.3007148165       -1.6406897583
 H          0.1732637362       -1.3011410859       -1.6407262950
 H         -0.8542542920       -2.1435882868       -0.4803514974
 H          0.5290794965        1.2902781537        1.3876858273
 H          1.5293297962        2.1434734060        0.2157452721
 H          1.5296237794       -2.1434327229        0.2147174168
 H          0.5297227508       -1.2910837285        1.3875328835
 H          2.2126467235        0.0001666761       -0.8047182668
 H          2.5863759409       -0.0000177217        0.9213445341
 H         -1.3291329301       -0.0002933503        1.6510282680
 H         -2.5878337518        0.8826358371        0.7925273377
 H         -2.5892311721       -0.8811771712        0.7922368082
}

set basis def2-tzvp
optimize('pbe0')
--------------------------------------------------------------------------

    Molecular point group: c1
  Charge       = 0
  Multiplicity = 1
  Basis Set: DEF2-TZVP
    Blend: DEF2-TZVP
  Basis Set: (DEF2-TZVP AUX)
    Blend: DEF2-TZVP-JKFIT
  @DF-RKS Final Energy:  -274.94362471564523
    Total Energy =                       -274.9436247156452282
    Molecular point group: c1
  Basis Set: DEF2-TZVP
    Blend: DEF2-TZVP
  Basis Set: (DEF2-TZVP AUX)
    Blend: DEF2-TZVP-JKFIT
  Basis Set: DEF2-TZVP
    Blend: DEF2-TZVP
  Basis Set: (DEF2-TZVP AUX)
    Blend: DEF2-TZVP-JKFIT
  @DF-RKS Final Energy:  -274.94413239587647
    Total Energy =                       -274.9441323958764656
  Basis Set: DEF2-TZVP
    Blend: DEF2-TZVP
  Basis Set: (DEF2-TZVP AUX)
    Blend: DEF2-TZVP-JKFIT
  Basis Set: DEF2-TZVP
    Blend: DEF2-TZVP
  Basis Set: (DEF2-TZVP AUX)
    Blend: DEF2-TZVP-JKFIT
  @DF-RKS Final Energy:  -274.94417692889141
    Total Energy =                       -274.9441769288914088
  Basis Set: DEF2-TZVP
    Blend: DEF2-TZVP
  Basis Set: (DEF2-TZVP AUX)
    Blend: DEF2-TZVP-JKFIT
  Charge       = 0
  Multiplicity = 1
  Basis Set: DEF2-TZVP
    Blend: DEF2-TZVP
  Basis Set: (DEF2-TZVP AUX)
    Blend: DEF2-TZVP-JKFIT

    Orbital Energies [Eh]
    ---------------------

    Doubly Occupied:

       1A    -10.217136     2A    -10.208634     3A    -10.208377
       4A    -10.208259     5A    -10.207770     6A    -10.207756
       7A    -10.202175     8A     -0.859458     9A     -0.781305
      10A     -0.759964    11A     -0.695309    12A     -0.622464
      13A     -0.609574    14A     -0.542113    15A     -0.498280
      16A     -0.459007    17A     -0.458147    18A     -0.437504
      19A     -0.411894    20A     -0.410120    21A     -0.384840
      22A     -0.368441    23A     -0.363299    24A     -0.345903
      25A     -0.341037    26A     -0.315046    27A     -0.301272
      28A     -0.301152

  @DF-RKS Final Energy:  -274.94417733512182

   => Energetics <=

    Nuclear Repulsion Energy =            333.8866088128892216
    One-Electron Energy =               -1030.8786517506714517
    Two-Electron Energy =                 454.7149284491085837
    DFT Exchange-Correlation Energy =     -32.6670628464481823
    Empirical Dispersion Energy =           0.0000000000000000
    VV10 Nonlocal Energy =                  0.0000000000000000
    Total Energy =                       -274.9441773351218217

  Dipole Moment: [D]
     X:     0.0097      Y:    -0.0000      Z:    -0.0751     Total:     0.0757

    Molecular point group: c1
  Basis Set: DEF2-TZVP
    Blend: DEF2-TZVP
  Basis Set: (DEF2-TZVP AUX)
    Blend: DEF2-TZVP-JKFIT

  -Total Gradient:
     Atom            X                  Y                   Z
    ------   -----------------  -----------------  -----------------
       1        0.000135934621    -0.000001301337    -0.000049315481
       2       -0.000044885040    -0.000058169486     0.000063444633
       3       -0.000044072346     0.000058967711     0.000062970652
       4       -0.000001867474    -0.000005946300    -0.000009046656
       5       -0.000002555530     0.000005810628    -0.000008552018
       6       -0.000062417926    -0.000000057642    -0.000047177389
       7       -0.000024704530     0.000000585980    -0.000008609852
       8       -0.000011915212    -0.000000333053     0.000022556696
       9        0.000035261279     0.000029444296     0.000008878310
      10        0.000008240794     0.000012972505    -0.000026165072
      11        0.000008447659    -0.000012831986    -0.000026313441
      12        0.000035454085    -0.000029105704     0.000008689844
      13       -0.000012564409     0.000014281848     0.000019816049
      14       -0.000002788869    -0.000011252855    -0.000000131520
      15       -0.000002901238     0.000011269070    -0.000000081107
      16       -0.000013403713    -0.000014020093     0.000020463034
      17        0.000023459174     0.000000291918    -0.000023228415
      18       -0.000023759263    -0.000000124433    -0.000003057298
      19        0.000001110943    -0.000000470891    -0.000011984938
      20       -0.000004876024     0.000013211435    -0.000016275684
      21       -0.000005878731    -0.000013229314    -0.000016513648

  **** Optimization is complete! (in 4 steps) ****
    Final optimized geometry and variables:
    Molecular point group: c1

    Geometry (in Angstrom), charge = 0, multiplicity = 1:

    C           -1.109578868571     0.000042108782    -0.517376086065
    C           -0.237191174454     1.253850092107    -0.625655877514
    C           -0.237306530418    -1.253847262078    -0.625613335457
    C            0.923215029038     1.256914123696     0.362991956927
    C            0.923078620816    -1.256983374139     0.363056744934
    C            1.771739786759    -0.000084256918     0.220998271916
    C           -1.969277248238     0.000102839799     0.741747399326
    H           -1.795731504527     0.000060618381    -1.372885751604
    H           -0.853832845747     2.148752750821    -0.490486454961
    H            0.171101741996     1.309451661298    -1.642490698400
    H            0.171000570128    -1.309511994346    -1.642439190599
    H           -0.854031562778    -2.148690095496    -0.490431145347
    H            0.541008909369     1.322387764172     1.388367147947
    H            1.537749055035     2.149364116308     0.210151183894
    H            1.537518231046    -2.149509353391     0.210281757938
    H            0.540843698274    -1.322351723680     1.388428839917
    H            2.250271307469    -0.000134428767    -0.767054313174
    H            2.580605021790    -0.000108894032     0.958021411521
    H           -1.370285607797    -0.000026584080     1.655193579747
    H           -2.613047709704     0.883332464467     0.773100016532
    H           -2.613298398758    -0.882948090407     0.773014911745

*** Psi4 exiting successfully. Buy a developer a beer!
