                               Psi4 1.3.2 release

  ==> Input File <==

--------------------------------------------------------------------------
memory 8 gb

molecule {
0 1
 C          0.9640749498        0.0298194135       -0.3436238735
 C          0.3229229995       -1.3116042271        0.0467725839
 C          0.2750391194        1.1632854683        0.4143856489
 C         -1.1622996913       -1.1598447135        0.3971065312
 C         -1.1833937624        1.3111682118       -0.0359705012
 C         -1.7913527381       -0.0418232326       -0.4259288631
 C          2.4654738100        0.0107701925       -0.0721029547
 H          0.8143086663        0.2000516978       -1.4151296092
 H          0.8525740527       -1.7301794783        0.9052759220
 H          0.4375703166       -2.0150551232       -0.7805163774
 H          0.8076623924        2.1019505628        0.2499026548
 H          0.3193664863        0.9463982201        1.4835194173
 H         -1.2769719125       -0.9232758766        1.4566342259
 H         -1.6826405852       -2.1019802291        0.2146484910
 H         -1.2398862559        1.9894556019       -0.8896282873
 H         -1.7634700505        1.7582574388        0.7737653909
 H         -1.6149677856       -0.2423251546       -1.4845157977
 H         -2.8718723393       -0.0209682548       -0.2726229304
 H          2.9298914763        0.9325520789       -0.4161796614
 H          2.6584734218       -0.0922347918        0.9940325645
 H          2.9352787611       -0.8237527897       -0.5884586311
}

set basis def2-tzvp
optimize('pbe0')
--------------------------------------------------------------------------

    Molecular point group: c1
  Charge       = 0
  Multiplicity = 1
  Basis Set: DEF2-TZVP
    Blend: DEF2-TZVP
  Basis Set: (DEF2-TZVP AUX)
    Blend: DEF2-TZVP-JKFIT
  @DF-RKS Final Energy:  -274.93682772850599
    Total Energy =                       -274.9368277285059321
    Molecular point group: c1
  Basis Set: DEF2-TZVP
    Blend: DEF2-TZVP
  Basis Set: (DEF2-TZVP AUX)
    Blend: DEF2-TZVP-JKFIT
  Basis Set: DEF2-TZVP
    Blend: DEF2-TZVP
  Basis Set: (DEF2-TZVP AUX)
    Blend: DEF2-TZVP-JKFIT
  @DF-RKS Final Energy:  -274.93740525998317
    Total Energy =                       -274.9374052599831657
  Basis Set: DEF2-TZVP
    Blend: DEF2-TZVP
  Basis Set: (DEF2-TZVP AUX)
    Blend: DEF2-TZVP-JKFIT
  Basis Set: DEF2-TZVP
    Blend: DEF2-TZVP
  @DF-RKS Final Energy:  -274.93746371249563
    Total Energy =                       -274.9374637124956280
  @DF-RKS Final Energy:  -274.93745426403427
    Total Energy =                       -274.9374542640342725
  Basis Set: (DEF2-TZVP AUX)
    Blend: DEF2-TZVP-JKFIT
  Basis Set: DEF2-TZVP
    Blend: DEF2-TZVP
  Basis Set: (DEF2-TZVP AUX)
    Blend: DEF2-TZVP-JKFIT
  @DF-RKS Final Energy:  -274.93746478526646
    Total Energy =                       -274.9374647852664566
  Basis Set: DEF2-TZVP
    Blend: DEF2-TZVP
  Basis Set: (DEF2-TZVP AUX)
    Blend: DEF2-TZVP-JKFIT
  Charge       = 0
  Multiplicity = 1
  Basis Set: DEF2-TZVP
    Blend: DEF2-TZVP
  Basis Set: (DEF2-TZVP AUX)
    Blend: DEF2-TZVP-JKFIT

    Orbital Energies [Eh]
    ---------------------

    Doubly Occupied:

       1A    -10.216577     2A    -10.209352     3A    -10.209010
       4A    -10.208744     5A    -10.207979     6A    -10.207419
       7A    -10.202792     8A     -0.859180     9A     -0.783359
      10A     -0.756622    11A     -0.691451    12A     -0.627361
      13A     -0.608063    14A     -0.536496    15A     -0.500529
      16A     -0.479634    17A     -0.453238    18A     -0.425485
      19A     -0.417310    20A     -0.390767    21A     -0.381212
      22A     -0.372408    23A     -0.362670    24A     -0.352283
      25A     -0.348347    26A     -0.307926    27A     -0.302125
      28A     -0.300082

  @DF-RKS Final Energy:  -274.93746478609205

   => Energetics <=

    Nuclear Repulsion Energy =            330.3010514668772544
    One-Electron Energy =               -1023.7119511274803472
    Two-Electron Energy =                 451.1369960283170144
    DFT Exchange-Correlation Energy =     -32.6635611538060289
    Empirical Dispersion Energy =           0.0000000000000000
    VV10 Nonlocal Energy =                  0.0000000000000000
    Total Energy =                       -274.9374647860920504

  Dipole Moment: [D]
     X:    -0.1011      Y:     0.0062      Z:    -0.0819     Total:     0.1302

    Molecular point group: c1
  Basis Set: DEF2-TZVP
    Blend: DEF2-TZVP
  Basis Set: (DEF2-TZVP AUX)
    Blend: DEF2-TZVP-JKFIT

  -Total Gradient:
     Atom            X                  Y                   Z
    ------   -----------------  -----------------  -----------------
       1       -0.000020870819    -0.000016714520     0.000004416133
       2        0.000012025694     0.000016811488     0.000000989456
       3        0.000006780297    -0.000005552162    -0.000008271094
       4       -0.000005091183    -0.000000875842     0.000001478786
       5       -0.000010332440    -0.000002612990    -0.000011198481
       6        0.000001486494     0.000008584935     0.000006614874
       7        0.000021821116     0.000006338521     0.000001356170
       8        0.000000478738     0.000000284291    -0.000000008484
       9        0.000004698176    -0.000002023145     0.000002233587
      10        0.000001024215     0.000002367250     0.000003046735
      11        0.000000641726     0.000001509704     0.000000658385
      12        0.000001030263    -0.000000025313    -0.000002757026
      13        0.000003749713    -0.000000124217     0.000000326653
      14        0.000001108899    -0.000001463265     0.000003274261
      15       -0.000004106494     0.000000314049    -0.000000141299
      16       -0.000003415280    -0.000000913943    -0.000000626891
      17       -0.000002658467     0.000001706495     0.000000630492
      18       -0.000002419722     0.000002169278     0.000000039377
      19       -0.000003247466    -0.000000432572     0.000003866363
      20       -0.000003098465    -0.000001029362    -0.000005745713
      21       -0.000002305817     0.000005769262    -0.000002702523

  **** Optimization is complete! (in 6 steps) ****
    Final optimized geometry and variables:
    Molecular point group: c1

    Geometry (in Angstrom), charge = 0, multiplicity = 1:

    C            0.972099672287     0.033069572981    -0.331889750493
    C            0.323556976845    -1.305044689524     0.055457104059
    C            0.279601614834     1.170548263004     0.408374643624
    C           -1.170368122430    -1.173996292658     0.378254535868
    C           -1.187062335576     1.307510206482    -0.019781008107
    C           -1.800839842116    -0.041084124577    -0.417302306688
    C            2.471781217451     0.011500008202    -0.091854843358
    H            0.807905940570     0.195105659838    -1.405657838626
    H            0.850158504898    -1.718994432718     0.922927977639
    H            0.470615896211    -2.021957944722    -0.759060185003
    H            0.810612023897     2.113154027793     0.244381623504
    H            0.343101366707     0.971602717698     1.485344627063
    H           -1.304422905869    -0.970720468832     1.446660007361
    H           -1.683337546997    -2.119762034879     0.183990522100
    H           -1.264799732691     2.004658286546    -0.859659352057
    H           -1.763919550963     1.750598972294     0.797819046484
    H           -1.640181981872    -0.225672133733    -1.485335423102
    H           -2.884413245357    -0.019548390159    -0.273215059813
    H            2.947180576964     0.931076148207    -0.443640971168
    H            2.690817981531    -0.090329877836     0.975921774208
    H            2.945088975429    -0.829012653830    -0.607323429370

*** Psi4 exiting successfully. Buy a developer a beer!
