                               Psi4 1.3.2 release

  ==> Input File <==

--------------------------------------------------------------------------
memory 8 gb

molecule {
0 1
 C          1.0148624915       -0.0000400421       -0.3283006110
 C          0.2972395851       -1.2475666412        0.1919026741
 C          0.2972564863        1.2475248519        0.1918485188
 C         -1.1708227883       -1.2510743157       -0.2242068556
 C         -1.1708436542        1.2511117861       -0.2241381751
 C         -1.8753009847       -0.0000026830        0.2903253085
 C          2.4992409616        0.0000393210        0.0735327980
 H          0.9390860475       -0.0000824209       -1.4212442033
 H          0.3635164077       -1.2697640648        1.2825462469
 H          0.7912123566       -2.1427594029       -0.1932088909
 H          0.7912717510        2.1426911525       -0.1932702831
 H          0.3635555286        1.2697264825        1.2824930068
 H         -1.6643008996       -2.1443483903        0.1652894227
 H         -1.2379911940       -1.2811124455       -1.3145011705
 H         -1.2381369891        1.2812912642       -1.3144183595
 H         -1.6642659655        2.1443434782        0.1655323060
 H         -2.9192155637        0.0000062528       -0.0308065418
 H         -1.8609767839       -0.0000484524        1.3828077355
 H          2.7417560034       -0.8803944933        0.6640012750
 H          3.1460779888        0.0040584929       -0.7998774312
 H          2.7398160937        0.8764845811        0.6706788221
}

# This conformer is harder to optimize than the others
set geom_maxiter 250
set opt_coordinates both

set basis def2-tzvp
optimize('pbe0')
--------------------------------------------------------------------------

    Molecular point group: c1
  Charge       = 0
  Multiplicity = 1
  Basis Set: DEF2-TZVP
    Blend: DEF2-TZVP
  Basis Set: (DEF2-TZVP AUX)
    Blend: DEF2-TZVP-JKFIT
  @DF-RKS Final Energy:  -274.94180183035900
    Total Energy =                       -274.9418018303589974
    Molecular point group: c1
  Basis Set: DEF2-TZVP
    Blend: DEF2-TZVP
  Basis Set: (DEF2-TZVP AUX)
    Blend: DEF2-TZVP-JKFIT
  Basis Set: DEF2-TZVP
    Blend: DEF2-TZVP
  Basis Set: (DEF2-TZVP AUX)
    Blend: DEF2-TZVP-JKFIT
  @DF-RKS Final Energy:  -274.94242394475248
    Total Energy =                       -274.9424239447524769
  Basis Set: DEF2-TZVP
    Blend: DEF2-TZVP
  Basis Set: (DEF2-TZVP AUX)
    Blend: DEF2-TZVP-JKFIT
  Basis Set: DEF2-TZVP
    Blend: DEF2-TZVP
  @DF-RKS Final Energy:  -274.94256365444312
    Total Energy =                       -274.9425636544430631
  @DF-RKS Final Energy:  -274.94260130984605
    Total Energy =                       -274.9426013098459975
  @DF-RKS Final Energy:  -274.94263536527245
    Total Energy =                       -274.9426353652724515
  @DF-RKS Final Energy:  -274.94264812868863
    Total Energy =                       -274.9426481286885746
  @DF-RKS Final Energy:  -274.94266812159560
    Total Energy =                       -274.9426681215956023
  @DF-RKS Final Energy:  -274.94267327108798
    Total Energy =                       -274.9426732710879264
  @DF-RKS Final Energy:  -274.94267525253281
    Total Energy =                       -274.9426752525328084
  Basis Set: (DEF2-TZVP AUX)
    Blend: DEF2-TZVP-JKFIT
  Basis Set: DEF2-TZVP
    Blend: DEF2-TZVP
  Basis Set: (DEF2-TZVP AUX)
    Blend: DEF2-TZVP-JKFIT
  @DF-RKS Final Energy:  -274.94267798838007
    Total Energy =                       -274.9426779883800123
  Basis Set: DEF2-TZVP
    Blend: DEF2-TZVP
  Basis Set: (DEF2-TZVP AUX)
    Blend: DEF2-TZVP-JKFIT
  Charge       = 0
  Multiplicity = 1
  Basis Set: DEF2-TZVP
    Blend: DEF2-TZVP
  Basis Set: (DEF2-TZVP AUX)
    Blend: DEF2-TZVP-JKFIT

    Orbital Energies [Eh]
    ---------------------

    Doubly Occupied:

       1A    -10.216954     2A    -10.209030     3A    -10.208853
       4A    -10.208681     5A    -10.207864     6A    -10.207848
       7A    -10.201959     8A     -0.859519     9A     -0.783844
      10A     -0.760537    11A     -0.691908    12A     -0.624068
      13A     -0.599433    14A     -0.564655    15A     -0.486510
      16A     -0.459019    17A     -0.448847    18A     -0.445217
      19A     -0.424042    20A     -0.394511    21A     -0.385462
      22A     -0.377219    23A     -0.356666    24A     -0.347530
      25A     -0.335995    26A     -0.318754    27A     -0.304506
      28A     -0.300630

  @DF-RKS Final Energy:  -274.94267874243030

   => Energetics <=

    Nuclear Repulsion Energy =            329.5211547015363749
    One-Electron Energy =               -1022.1390092562369318
    Two-Electron Energy =                 450.3393561097607289
    DFT Exchange-Correlation Energy =     -32.6641802974904607
    Empirical Dispersion Energy =           0.0000000000000000
    VV10 Nonlocal Energy =                  0.0000000000000000
    Total Energy =                       -274.9426787424303029

  Dipole Moment: [D]
     X:    -0.0820      Y:     0.0001      Z:    -0.0866     Total:     0.1193

    Molecular point group: c1
  Basis Set: DEF2-TZVP
    Blend: DEF2-TZVP
  Basis Set: (DEF2-TZVP AUX)
    Blend: DEF2-TZVP-JKFIT

  -Total Gradient:
     Atom            X                  Y                   Z
    ------   -----------------  -----------------  -----------------
       1        0.000036610609     0.000000959664     0.000023814585
       2       -0.000045390967     0.000029646951    -0.000008349249
       3       -0.000046710400    -0.000030370473    -0.000001523605
       4        0.000031110504     0.000033387351     0.000001323462
       5        0.000030553066    -0.000033675927     0.000005642802
       6        0.000000832773    -0.000000832696     0.000001385906
       7       -0.000075495118     0.000000322072    -0.000008819833
       8       -0.000024039150     0.000005241634     0.000042133738
       9        0.000009128902    -0.000064053000    -0.000030285882
      10       -0.000018632317     0.000022679548     0.000021387158
      11       -0.000019547949    -0.000021840145     0.000029158340
      12        0.000007719235     0.000060781405    -0.000024693657
      13        0.000036461583     0.000022445386    -0.000012749910
      14        0.000016384299     0.000023924231     0.000010706874
      15        0.000017328757    -0.000021321709     0.000014742720
      16        0.000035064381    -0.000023892581    -0.000007134570
      17        0.000029019256    -0.000000771140    -0.000001728476
      18       -0.000004269197    -0.000002585226    -0.000021011967
      19        0.000011747701     0.000027795094     0.000002398029
      20       -0.000050426086    -0.000025615072     0.000002994681
      21        0.000025200121    -0.000002147487    -0.000039735158

  **** Optimization is complete! (in 11 steps) ****
    Final optimized geometry and variables:
    Molecular point group: c1

    Geometry (in Angstrom), charge = 0, multiplicity = 1:

    C            1.021641928543    -0.000189304703    -0.316148780472
    C            0.297337882140    -1.250618913566     0.177581094560
    C            0.297457548699     1.250606424899     0.176888854932
    C           -1.174436576335    -1.256254890751    -0.211412316843
    C           -1.174400309135     1.256313849556    -0.211804494725
    C           -1.883297961806     0.000108643258     0.276379683199
    C            2.504493539362     0.000021144444     0.079326613679
    H            0.951221194825    -0.000634624533    -1.412294997357
    H            0.386289463426    -1.298236576439     1.271545929849
    H            0.797290593263    -2.144278566892    -0.211091770526
    H            0.797490795160     2.144128179216    -0.211999627725
    H            0.386491680967     1.298493820869     1.270840834599
    H           -1.666977849902    -2.149890872377     0.183920083528
    H           -1.257017912398    -1.314330998600    -1.304253365446
    H           -1.257289194172     1.314282821886    -1.304617739967
    H           -1.666738252558     2.150040537014     0.183584922249
    H           -2.927271573834     0.000077320684    -0.051471346071
    H           -1.901122120800     0.000249731760     1.373648062365
    H            2.761631829163    -0.882719952899     0.670592534058
    H            3.161745858171     0.006779963031    -0.792546807501
    H            2.758341852602     0.876194564038     0.681695826182

*** Psi4 exiting successfully. Buy a developer a beer!
