                               Psi4 1.3.2 release

  ==> Input File <==

--------------------------------------------------------------------------
memory 8 gb

molecule {
0 1
 C          1.0138209743        0.0000504938       -0.3320143257
 C          0.3011766819       -1.2490459958        0.1880687301
 C          0.3011705532        1.2491334547        0.1881225711
 C         -1.1681795797       -1.2518490761       -0.2231999547
 C         -1.1681646702        1.2518017380       -0.2232353354
 C         -1.8704369468       -0.0000107259        0.2931516386
 C          2.4834462973       -0.0000526508        0.0793244864
 H          0.9578296121        0.0001317793       -1.4269643433
 H          0.3719502854       -1.2738045338        1.2783433519
 H          0.7954821386       -2.1434306899       -0.1983308514
 H          0.7955120205        2.1435500894       -0.1982165735
 H          0.3719418465        1.2737371458        1.2784081110
 H         -1.6613232246       -2.1444573858        0.1682458589
 H         -1.2389521557       -1.2820854090       -1.3132456880
 H         -1.2389247893        1.2821507899       -1.3132924946
 H         -1.6613748878        2.1443291541        0.1682793278
 H         -2.9152913775       -0.0000182176       -0.0249822935
 H         -1.8531032928       -0.0000579011        1.3856452460
 H          2.9894549975        0.8826673032       -0.3058691699
 H          2.5743314259       -0.0008035829        1.1637849282
 H          2.9895575018       -0.8822331319       -0.3068953206
}

set basis def2-tzvp
optimize('pbe0')
--------------------------------------------------------------------------

    Molecular point group: c1
  Charge       = 0
  Multiplicity = 1
  Basis Set: DEF2-TZVP
    Blend: DEF2-TZVP
  Basis Set: (DEF2-TZVP AUX)
    Blend: DEF2-TZVP-JKFIT
  @DF-RKS Final Energy:  -274.94666444864839
    Total Energy =                       -274.9466644486483915
    Molecular point group: c1
  Basis Set: DEF2-TZVP
    Blend: DEF2-TZVP
  Basis Set: (DEF2-TZVP AUX)
    Blend: DEF2-TZVP-JKFIT
  Basis Set: DEF2-TZVP
    Blend: DEF2-TZVP
  Basis Set: (DEF2-TZVP AUX)
    Blend: DEF2-TZVP-JKFIT
  @DF-RKS Final Energy:  -274.94746493246413
    Total Energy =                       -274.9474649324641859
  Basis Set: DEF2-TZVP
    Blend: DEF2-TZVP
  Basis Set: (DEF2-TZVP AUX)
    Blend: DEF2-TZVP-JKFIT
  Basis Set: DEF2-TZVP
    Blend: DEF2-TZVP
  Basis Set: (DEF2-TZVP AUX)
    Blend: DEF2-TZVP-JKFIT
  @DF-RKS Final Energy:  -274.94752661413958
    Total Energy =                       -274.9475266141395764
  Basis Set: DEF2-TZVP
    Blend: DEF2-TZVP
  Basis Set: (DEF2-TZVP AUX)
    Blend: DEF2-TZVP-JKFIT
  Charge       = 0
  Multiplicity = 1
  Basis Set: DEF2-TZVP
    Blend: DEF2-TZVP
  Basis Set: (DEF2-TZVP AUX)
    Blend: DEF2-TZVP-JKFIT

    Orbital Energies [Eh]
    ---------------------

    Doubly Occupied:

       1A    -10.216601     2A    -10.209184     3A    -10.209088
       4A    -10.208784     5A    -10.207811     6A    -10.207800
       7A    -10.202531     8A     -0.860223     9A     -0.785739
      10A     -0.760522    11A     -0.691943    12A     -0.623999
      13A     -0.598772    14A     -0.564382    15A     -0.487525
      16A     -0.459636    17A     -0.450501    18A     -0.446312
      19A     -0.423623    20A     -0.393270    21A     -0.385639
      22A     -0.375552    23A     -0.359248    24A     -0.346768
      25A     -0.336910    26A     -0.320125    27A     -0.305755
      28A     -0.301326

  @DF-RKS Final Energy:  -274.94752773186326

   => Energetics <=

    Nuclear Repulsion Energy =            329.9474249465314983
    One-Electron Energy =               -1022.9813854391400127
    Two-Electron Energy =                 450.7518757870796549
    DFT Exchange-Correlation Energy =     -32.6654430263344580
    Empirical Dispersion Energy =           0.0000000000000000
    VV10 Nonlocal Energy =                  0.0000000000000000
    Total Energy =                       -274.9475277318632607

  Dipole Moment: [D]
     X:    -0.0935      Y:    -0.0002      Z:    -0.0828     Total:     0.1249

    Molecular point group: c1
  Basis Set: DEF2-TZVP
    Blend: DEF2-TZVP
  Basis Set: (DEF2-TZVP AUX)
    Blend: DEF2-TZVP-JKFIT

  -Total Gradient:
     Atom            X                  Y                   Z
    ------   -----------------  -----------------  -----------------
       1       -0.000119522214    -0.000000318973     0.000074603629
       2        0.000039597079     0.000042794979    -0.000056427006
       3        0.000039875349    -0.000043080103    -0.000056432178
       4       -0.000024396183     0.000009192443     0.000023579319
       5       -0.000024200818    -0.000009022892     0.000023460920
       6        0.000036365187    -0.000000252610    -0.000025389859
       7        0.000096248791     0.000000489714     0.000008541337
       8        0.000006144788    -0.000000005637    -0.000020231401
       9       -0.000002324006    -0.000001241798     0.000023636015
      10       -0.000008900240    -0.000005556167     0.000001534584
      11       -0.000008956580     0.000005752758     0.000001588053
      12       -0.000002340252     0.000001221826     0.000023431146
      13        0.000002612967     0.000010513645     0.000003133210
      14        0.000003505035     0.000000087793    -0.000014491422
      15        0.000003341039    -0.000000026339    -0.000014737548
      16        0.000002593830    -0.000010432397     0.000003114232
      17        0.000001320761     0.000000106784     0.000001210363
      18        0.000001552297    -0.000000014911     0.000016834537
      19       -0.000003415249     0.000006056922    -0.000007337811
      20       -0.000018125804    -0.000000151979     0.000002462840
      21       -0.000003385192    -0.000006104208    -0.000007844069

  **** Optimization is complete! (in 4 steps) ****
    Final optimized geometry and variables:
    Molecular point group: c1

    Geometry (in Angstrom), charge = 0, multiplicity = 1:

    C            1.023463534129    -0.000774258430    -0.318873762051
    C            0.301707305354    -1.251227209922     0.175466451331
    C            0.301540734656     1.252176010295     0.168855093730
    C           -1.171668005246    -1.257043273265    -0.209897870441
    C           -1.171834018890     1.255761092119    -0.216537696602
    C           -1.878423228556     0.000608903602     0.277586002087
    C            2.486442151647     0.000408861321     0.092108601772
    H            0.975729250571    -0.003677939808    -1.417799021490
    H            0.390938048688    -1.297922899727     1.269585993467
    H            0.800165856456    -2.145847927210    -0.212896536522
    H            0.799881504119     2.144800189448    -0.224224507728
    H            0.390761321241     1.304659608366     1.262712840358
    H           -1.663466082703    -2.149377302789     0.189336404836
    H           -1.258019212061    -1.317797642459    -1.302253068331
    H           -1.258192080708     1.310730774993    -1.309199101735
    H           -1.663751473933     2.150127438339     0.177974083256
    H           -2.923872482243    -0.000313728704    -0.045681144296
    H           -1.891589527954     0.003507569284     1.375026425483
    H            3.006962818433     0.883388506657    -0.288585722642
    H            2.582472134966     0.003242641330     1.182610753979
    H            3.007103861463    -0.884449170069    -0.284004863403

*** Psi4 exiting successfully. Buy a developer a beer!
