                               Psi4 1.3.2 release

  ==> Input File <==

--------------------------------------------------------------------------
memory 8 gb

molecule {
symmetry c1
Cr        0.48028725377749    0.32716919378518    0.12128381663197
O         1.51332165941332    1.03448648135578   -0.78955553051410
O        -0.57831537187616    1.32157128739802    0.65757817076212
F        -0.29602430869141   -0.85637252313759   -0.76598418135575
F         1.28459076737678   -0.35182443940140    1.41848772447575
}

set basis def2-QZVP
set geom_maxiter 250

# Use a (75,302) quadrature grid
set dft_radial_points 75
set dft_spherical_points 302

# Very tight geometry optimization
set g_convergence gau_verytight
# Increase allowed number of geometry optimization steps
set geom_maxiter 250

# Use the Hueckel type guess
set guess huckel

my_dft = {
    "name": "my r2scan",
    "x_functionals": {"mgga_x_r2scan": {}},
    "c_functionals": {"mgga_c_r2scan": {}}
}
optimize('scf', dft_functional=my_dft)
--------------------------------------------------------------------------

    Molecular point group: c1
  Charge       = 0
  Multiplicity = 1
  Basis Set: DEF2-QZVP
    Blend: DEF2-QZVP
  Basis Set: (DEF2-QZVP AUX)
    Blend: DEF2-QZVP-JKFIT
  @DF-RKS Final Energy: -1394.76849307660768
    Total Energy =                      -1394.7684930766076832
    Molecular point group: c1
  Basis Set: DEF2-QZVP
    Blend: DEF2-QZVP
  Basis Set: (DEF2-QZVP AUX)
    Blend: DEF2-QZVP-JKFIT
  Basis Set: DEF2-QZVP
    Blend: DEF2-QZVP
  Basis Set: (DEF2-QZVP AUX)
    Blend: DEF2-QZVP-JKFIT
  @DF-RKS Final Energy: -1394.77002159224503
    Total Energy =                      -1394.7700215922450298
  Basis Set: DEF2-QZVP
    Blend: DEF2-QZVP
  Basis Set: (DEF2-QZVP AUX)
    Blend: DEF2-QZVP-JKFIT
  Basis Set: DEF2-QZVP
    Blend: DEF2-QZVP
  @DF-RKS Final Energy: -1394.77082682435753
    Total Energy =                      -1394.7708268243575276
  @DF-RKS Final Energy: -1394.77099764709328
    Total Energy =                      -1394.7709976470932816
  @DF-RKS Final Energy: -1394.77101804843369
    Total Energy =                      -1394.7710180484336888
  @DF-RKS Final Energy: -1394.77103117465640
    Total Energy =                      -1394.7710311746564003
  @DF-RKS Final Energy: -1394.77103557508667
    Total Energy =                      -1394.7710355750866711
  @DF-RKS Final Energy: -1394.77103578457377
    Total Energy =                      -1394.7710357845737690
  @DF-RKS Final Energy: -1394.77103579609343
    Total Energy =                      -1394.7710357960934289
  @DF-RKS Final Energy: -1394.77103578756078
    Total Energy =                      -1394.7710357875607770
  @DF-RKS Final Energy: -1394.77103576372019
    Total Energy =                      -1394.7710357637201923
  @DF-RKS Final Energy: -1394.77103572779811
    Total Energy =                      -1394.7710357277981075
  @DF-RKS Final Energy: -1394.77103569724409
    Total Energy =                      -1394.7710356972440877
  @DF-RKS Final Energy: -1394.77103567275640
    Total Energy =                      -1394.7710356727563976
  Basis Set: (DEF2-QZVP AUX)
    Blend: DEF2-QZVP-JKFIT
  Basis Set: DEF2-QZVP
    Blend: DEF2-QZVP
  Basis Set: (DEF2-QZVP AUX)
    Blend: DEF2-QZVP-JKFIT
  @DF-RKS Final Energy: -1394.77103565701805
    Total Energy =                      -1394.7710356570180465
  Basis Set: DEF2-QZVP
    Blend: DEF2-QZVP
  Basis Set: (DEF2-QZVP AUX)
    Blend: DEF2-QZVP-JKFIT
  Charge       = 0
  Multiplicity = 1
  Basis Set: DEF2-QZVP
    Blend: DEF2-QZVP
  Basis Set: (DEF2-QZVP AUX)
    Blend: DEF2-QZVP-JKFIT

    Orbital Energies [Eh]
    ---------------------

    Doubly Occupied:

       1A   -215.496270     2A    -24.795190     3A    -24.528825
       4A    -24.528825     5A    -21.067321     6A    -21.066810
       7A    -21.063772     8A    -19.049075     9A    -19.049074
      10A     -3.024834    11A     -1.975377    12A     -1.974980
      13A     -1.968951    14A     -1.163511    15A     -1.158915
      16A     -0.955925    17A     -0.945300    18A     -0.493009
      19A     -0.486040    20A     -0.469194    21A     -0.468950
      22A     -0.467074    23A     -0.434667    24A     -0.424189
      25A     -0.411257    26A     -0.391849    27A     -0.379384
      28A     -0.377978    29A     -0.337379

  @DF-RKS Final Energy: -1394.77103564758340

   => Energetics <=

    Nuclear Repulsion Energy =            350.2769569755561747
    One-Electron Energy =               -2617.4063463126876741
    Two-Electron Energy =                 958.7286804835316616
    DFT Exchange-Correlation Energy =     -86.3703267939834660
    Empirical Dispersion Energy =           0.0000000000000000
    VV10 Nonlocal Energy =                  0.0000000000000000
    Total Energy =                      -1394.7710356475834033

  Dipole Moment: [D]
     X:     0.0017      Y:    -0.1129      Z:     0.0249     Total:     0.1156

    Molecular point group: c1
  Basis Set: DEF2-QZVP
    Blend: DEF2-QZVP
  Basis Set: (DEF2-QZVP AUX)
    Blend: DEF2-QZVP-JKFIT

  -Total Gradient:
     Atom            X                  Y                   Z
    ------   -----------------  -----------------  -----------------
       1        0.000012653355    -0.000847929237     0.000186672826
       2        0.000013454448    -0.000844526711     0.000185324943
       3        0.000012007477    -0.000844402331     0.000186342769
       4        0.000013029401    -0.000844567063     0.000186383837
       5        0.000012357526    -0.000844791816     0.000185457259

  **** Optimization is complete! (in 16 steps) ****
    Final optimized geometry and variables:
    Molecular point group: c1

    Geometry (in Angstrom), charge = 0, multiplicity = 1:

    CR          -0.001049199014     0.069823591045    -0.015367998521
    O            1.019303433903     0.812913893810    -0.925294411066
    O           -1.047996897344     1.096655380571     0.505002733580
    F           -0.787522530551    -1.154986270560    -0.909131479846
    F            0.814548245365    -0.643589634839     1.304993756018

*** Psi4 exiting successfully. Buy a developer a beer!
