                               Psi4 1.3.2 release

  ==> Input File <==

--------------------------------------------------------------------------
memory 8 gb

molecule {
symmetry c1
Cr        0.48028725377749    0.32716919378518    0.12128381663197
O         1.51332165941332    1.03448648135578   -0.78955553051410
O        -0.57831537187616    1.32157128739802    0.65757817076212
F        -0.29602430869141   -0.85637252313759   -0.76598418135575
F         1.28459076737678   -0.35182443940140    1.41848772447575
}

set basis STO-3G
set geom_maxiter 250

# Use a (75,302) quadrature grid
set dft_radial_points 75
set dft_spherical_points 302

# Very tight geometry optimization
set g_convergence gau_verytight
# Increase allowed number of geometry optimization steps
set geom_maxiter 250

# Use the Hueckel type guess
set guess huckel

my_dft = {
    "name": "my r2scan",
    "x_functionals": {"mgga_x_r2scan": {}},
    "c_functionals": {"mgga_c_r2scan": {}}
}
optimize('scf', dft_functional=my_dft)
--------------------------------------------------------------------------

    Molecular point group: c1
  Charge       = 0
  Multiplicity = 1
  Basis Set: STO-3G
    Blend: STO-3G
  Basis Set: (STO-3G AUX)
    Blend: DEF2-SVP-JKFIT
  @DF-RKS Final Energy: -1378.90416593691953
    Total Energy =                      -1378.9041659369195258
    Molecular point group: c1
  Basis Set: STO-3G
    Blend: STO-3G
  Basis Set: (STO-3G AUX)
    Blend: DEF2-SVP-JKFIT
  Basis Set: STO-3G
    Blend: STO-3G
  Basis Set: (STO-3G AUX)
    Blend: DEF2-SVP-JKFIT
  @DF-RKS Final Energy: -1378.91504897140567
    Total Energy =                      -1378.9150489714056675
  Basis Set: STO-3G
    Blend: STO-3G
  Basis Set: (STO-3G AUX)
    Blend: DEF2-SVP-JKFIT
  Basis Set: STO-3G
    Blend: STO-3G
  @DF-RKS Final Energy: -1378.92377025981204
    Total Energy =                      -1378.9237702598120450
  @DF-RKS Final Energy: -1378.92416570082423
    Total Energy =                      -1378.9241657008242328
  @DF-RKS Final Energy: -1378.92421587564422
    Total Energy =                      -1378.9242158756442223
  @DF-RKS Final Energy: -1378.92422119465755
    Total Energy =                      -1378.9242211946575480
  @DF-RKS Final Energy: -1378.92421701676199
    Total Energy =                      -1378.9242170167619861
  @DF-RKS Final Energy: -1378.92421519061759
    Total Energy =                      -1378.9242151906175877
  Basis Set: (STO-3G AUX)
    Blend: DEF2-SVP-JKFIT
  Basis Set: STO-3G
    Blend: STO-3G
  Basis Set: (STO-3G AUX)
    Blend: DEF2-SVP-JKFIT
  @DF-RKS Final Energy: -1378.92421498039630
    Total Energy =                      -1378.9242149803963002
  Basis Set: STO-3G
    Blend: STO-3G
  Basis Set: (STO-3G AUX)
    Blend: DEF2-SVP-JKFIT
  Charge       = 0
  Multiplicity = 1
  Basis Set: STO-3G
    Blend: STO-3G
  Basis Set: (STO-3G AUX)
    Blend: DEF2-SVP-JKFIT

    Orbital Energies [Eh]
    ---------------------

    Doubly Occupied:

       1A   -213.348946     2A    -24.431938     3A    -24.209453
       4A    -24.209237     5A    -21.143386     6A    -21.142333
       7A    -21.140933     8A    -18.659516     9A    -18.659206
      10A     -2.997349    11A     -1.971863    12A     -1.969945
      13A     -1.966733    14A     -1.067436    15A     -1.061423
      16A     -0.821971    17A     -0.808864    18A     -0.333575
      19A     -0.324757    20A     -0.317560    21A     -0.293562
      22A     -0.285643    23A     -0.260285    24A     -0.257655
      25A     -0.221138    26A     -0.193848    27A     -0.192238
      28A     -0.185367    29A     -0.139942

  @DF-RKS Final Energy: -1378.92421494703785

   => Energetics <=

    Nuclear Repulsion Energy =            368.8718508370610607
    One-Electron Energy =               -2635.1888667723565050
    Two-Electron Energy =                 974.0429778798616098
    DFT Exchange-Correlation Energy =     -86.6501768916042323
    Empirical Dispersion Energy =           0.0000000000000000
    VV10 Nonlocal Energy =                  0.0000000000000000
    Total Energy =                      -1378.9242149470378536

  Dipole Moment: [D]
     X:     0.0199      Y:    -1.3265      Z:     0.2920     Total:     1.3584

    Molecular point group: c1
  Basis Set: STO-3G
    Blend: STO-3G
  Basis Set: (STO-3G AUX)
    Blend: DEF2-SVP-JKFIT

  -Total Gradient:
     Atom            X                  Y                   Z
    ------   -----------------  -----------------  -----------------
       1        0.000021429388    -0.001432021545     0.000315189556
       2        0.000021445512    -0.001432261514     0.000315298226
       3        0.000021660980    -0.001432339062     0.000315158029
       4        0.000021517054    -0.001431975712     0.000315173867
       5        0.000021541261    -0.001431995745     0.000315210805

  **** Optimization is complete! (in 10 steps) ****
    Final optimized geometry and variables:
    Molecular point group: c1

    Geometry (in Angstrom), charge = 0, multiplicity = 1:

    CR          -0.001055344309     0.070233298874    -0.015458176101
    O            0.988316208705     0.771357111507    -0.893274655354
    O           -1.015630117473     1.046403104282     0.493189926152
    F           -0.729044478143    -1.098049468240    -0.835904442846
    F            0.754925535205    -0.624351739263     1.215000860296

*** Psi4 exiting successfully. Buy a developer a beer!
