                               Psi4 1.3.2 release

  ==> Input File <==

--------------------------------------------------------------------------
memory 8 gb

molecule {
symmetry c1
Cr        0.48028725377749    0.32716919378518    0.12128381663197
O         1.51332165941332    1.03448648135578   -0.78955553051410
O        -0.57831537187616    1.32157128739802    0.65757817076212
F        -0.29602430869141   -0.85637252313759   -0.76598418135575
F         1.28459076737678   -0.35182443940140    1.41848772447575
}

set basis def2-SVP
set geom_maxiter 250

# Use a (75,302) quadrature grid
set dft_radial_points 75
set dft_spherical_points 302

# Very tight geometry optimization
set g_convergence gau_verytight
# Increase allowed number of geometry optimization steps
set geom_maxiter 250

# Use the Hueckel type guess
set guess huckel

my_dft = {
    "name": "my lda",
    "x_functionals": {"lda_x": {}},
    "c_functionals": {"lda_c_pw": {}}
}
optimize('scf', dft_functional=my_dft)
--------------------------------------------------------------------------

    Molecular point group: c1
  Charge       = 0
  Multiplicity = 1
  Basis Set: DEF2-SVP
    Blend: DEF2-SVP
  Basis Set: (DEF2-SVP AUX)
    Blend: DEF2-SVP-JKFIT
  @DF-RKS Final Energy: -1389.79236200698710
    Total Energy =                      -1389.7923620069871049
    Molecular point group: c1
  Basis Set: DEF2-SVP
    Blend: DEF2-SVP
  Basis Set: (DEF2-SVP AUX)
    Blend: DEF2-SVP-JKFIT
  Basis Set: DEF2-SVP
    Blend: DEF2-SVP
  Basis Set: (DEF2-SVP AUX)
    Blend: DEF2-SVP-JKFIT
  @DF-RKS Final Energy: -1389.79294623596570
    Total Energy =                      -1389.7929462359657009
  Basis Set: DEF2-SVP
    Blend: DEF2-SVP
  Basis Set: (DEF2-SVP AUX)
    Blend: DEF2-SVP-JKFIT
  Basis Set: DEF2-SVP
    Blend: DEF2-SVP
  @DF-RKS Final Energy: -1389.79299987736294
    Total Energy =                      -1389.7929998773629450
  @DF-RKS Final Energy: -1389.79304801392368
    Total Energy =                      -1389.7930480139236806
  @DF-RKS Final Energy: -1389.79305564412994
    Total Energy =                      -1389.7930556441299359
  @DF-RKS Final Energy: -1389.79305596827953
    Total Energy =                      -1389.7930559682795320
  @DF-RKS Final Energy: -1389.79305610545907
    Total Energy =                      -1389.7930561054590726
  @DF-RKS Final Energy: -1389.79305610301935
    Total Energy =                      -1389.7930561030193530
  @DF-RKS Final Energy: -1389.79305610164988
    Total Energy =                      -1389.7930561016498814
  @DF-RKS Final Energy: -1389.79305610089409
    Total Energy =                      -1389.7930561008940913
  @DF-RKS Final Energy: -1389.79305609847870
    Total Energy =                      -1389.7930560984787007
  Basis Set: (DEF2-SVP AUX)
    Blend: DEF2-SVP-JKFIT
  Basis Set: DEF2-SVP
    Blend: DEF2-SVP
  Basis Set: (DEF2-SVP AUX)
    Blend: DEF2-SVP-JKFIT
  @DF-RKS Final Energy: -1389.79305609896528
    Total Energy =                      -1389.7930560989652804
  Basis Set: DEF2-SVP
    Blend: DEF2-SVP
  Basis Set: (DEF2-SVP AUX)
    Blend: DEF2-SVP-JKFIT
  Charge       = 0
  Multiplicity = 1
  Basis Set: DEF2-SVP
    Blend: DEF2-SVP
  Basis Set: (DEF2-SVP AUX)
    Blend: DEF2-SVP-JKFIT

    Orbital Energies [Eh]
    ---------------------

    Doubly Occupied:

       1A   -214.154077     2A    -24.444589     3A    -24.143681
       4A    -24.143678     5A    -20.866688     6A    -20.866127
       7A    -20.862147     8A    -18.698513     9A    -18.698506
      10A     -2.900233    11A     -1.908488    12A     -1.908341
      13A     -1.902918    14A     -1.074573    15A     -1.068704
      16A     -0.881006    17A     -0.870063    18A     -0.485503
      19A     -0.478701    20A     -0.464475    21A     -0.463715
      22A     -0.460412    23A     -0.421764    24A     -0.412832
      25A     -0.395900    26A     -0.378629    27A     -0.366732
      28A     -0.365522    29A     -0.324095

  @DF-RKS Final Energy: -1389.79305609739163

   => Energetics <=

    Nuclear Repulsion Energy =            355.4801331933097117
    One-Electron Energy =               -2626.1400591379447178
    Two-Electron Energy =                 962.7511754110812490
    DFT Exchange-Correlation Energy =     -81.8843055638381685
    Empirical Dispersion Energy =           0.0000000000000000
    VV10 Nonlocal Energy =                  0.0000000000000000
    Total Energy =                      -1389.7930560973916272

  Dipole Moment: [D]
     X:     0.0053      Y:    -0.3517      Z:     0.0774     Total:     0.3602

    Molecular point group: c1
  Basis Set: DEF2-SVP
    Blend: DEF2-SVP
  Basis Set: (DEF2-SVP AUX)
    Blend: DEF2-SVP-JKFIT

  -Total Gradient:
     Atom            X                  Y                   Z
    ------   -----------------  -----------------  -----------------
       1        0.000000395034    -0.000020647722     0.000004489110
       2        0.000001021544    -0.000020777799     0.000004057260
       3       -0.000000488010    -0.000020503323     0.000005085979
       4       -0.000000604459    -0.000022573708     0.000003602086
       5        0.000001275609    -0.000021973837     0.000006200939

  **** Optimization is complete! (in 13 steps) ****
    Final optimized geometry and variables:
    Molecular point group: c1

    Geometry (in Angstrom), charge = 0, multiplicity = 1:

    CR          -0.000889694109     0.059210409678    -0.013032090848
    O            1.006732119143     0.799813234144    -0.913172326035
    O           -1.034979075663     1.080042475123     0.499420560823
    F           -0.780383048668    -1.125561745518    -0.904649446805
    F            0.806596768628    -0.618982253033     1.288619483216

*** Psi4 exiting successfully. Buy a developer a beer!
