   * xtb version 6.4.1-1.fc34.fc34 compiled by Fedora project on Fri Jun 11 20:36:47 UTC 2021
          program call               : xtb cro2f2.xyz --opt --gfn 2
          number of atoms            :                     5
          number of electrons        :                    32
          charge                     :                     0
          spin                       :                   0.0

   ID    Z sym.   atoms
    1   24 Cr     1
    2    8 O      2, 3
    3    9 F      4, 5

          :  Hamiltonian                  GFN2-xTB          :
 * total energy  :   -19.6998514 Eh     change       -0.2075531E-08 Eh
   *** GEOMETRY OPTIMIZATION CONVERGED AFTER 1 ITERATIONS ***

 final structure:
================
5
 xtb: 6.4.1-1.fc34.fc34
Cr        0.48028725377749    0.32716919378518    0.12128381663197
O         1.51332165941332    1.03448648135578   -0.78955553051410
O        -0.57831537187616    1.32157128739802    0.65757817076212
F        -0.29602430869141   -0.85637252313759   -0.76598418135575
F         1.28459076737678   -0.35182443940140    1.41848772447575

          :  Hamiltonian                  GFN2-xTB          :
         :: total energy             -19.699851387902 Eh    ::
         :: gradient norm              0.000057328208 Eh/a0 ::
         :: HOMO-LUMO gap              3.022780306884 eV    ::
         :: SCC energy               -19.771350422821 Eh    ::
         :: -> dispersion             -0.002278969051 Eh    ::
         :: repulsion energy           0.071498785142 Eh    ::

    * Orbital Energies and Occupations

         #    Occupation            Energy/Eh            Energy/eV
      -------------------------------------------------------------
         1        2.0000           -0.9371024             -25.4999
       ...           ...                  ...                  ...
         4        2.0000           -0.7401309             -20.1400
         5        2.0000           -0.6121527             -16.6575
         6        2.0000           -0.6082945             -16.5525
         7        2.0000           -0.6059011             -16.4874
         8        2.0000           -0.6034989             -16.4220
         9        2.0000           -0.6020969             -16.3839
        10        2.0000           -0.5900324             -16.0556
        11        2.0000           -0.5887885             -16.0218
        12        2.0000           -0.5617263             -15.2854
        13        2.0000           -0.5570519             -15.1582
        14        2.0000           -0.5569639             -15.1558
        15        2.0000           -0.5467524             -14.8779
        16        2.0000           -0.5312815             -14.4569 (HOMO)
        17                         -0.4201964             -11.4341 (LUMO)
        18                         -0.3806918             -10.3592
        19                         -0.3303796              -8.9901
        20                         -0.3227743              -8.7831
        21                         -0.2965624              -8.0699
        22                          0.3172009               8.6315
        23                          0.5626726              15.3111
        24                          0.5956616              16.2088
        25                          0.6668756              18.1466
      -------------------------------------------------------------
                  HL-Gap            0.1110851 Eh            3.0228 eV

     #   Z          covCN         q      C6AA      α(0)
     1  24 Cr       2.837     0.815   150.546    31.742
     2   8 O        0.742    -0.257    19.069     5.852
     3   8 O        0.742    -0.257    19.069     5.852
     4   9 F        0.677    -0.150    10.750     3.871
     5   9 F        0.677    -0.150    10.750     3.871

Wiberg/Mayer (AO) data.
largest (>0.10) Wiberg bond orders for each atom

normal termination of xtb
     #   Z sym  total        # sym  WBO       # sym  WBO       # sym  WBO
 ---------------------------------------------------------------------------
     1  24 Cr   6.977 --     2 O    2.248     3 O    2.248     5 F    1.240
                             4 F    1.240
     2   8 O    2.571 --     1 Cr   2.248     3 O    0.156
     3   8 O    2.571 --     1 Cr   2.248     2 O    0.156
     4   9 F    1.466 --     1 Cr   1.240
     5   9 F    1.466 --     1 Cr   1.240
 ---------------------------------------------------------------------------

molecular dipole:
                 x           y           z       tot (Debye)
 q only:        0.004      -0.299       0.066
   full:        0.015      -0.973       0.214       2.533

           -------------------------------------------------
          | TOTAL ENERGY              -19.699851387902 Eh   |
          | GRADIENT NORM               0.000057328208 Eh/α |
          | HOMO-LUMO GAP               3.022780306884 eV   |
           -------------------------------------------------

 * finished run on 2021/06/30 at 12:52:10.157
