                               Psi4 1.3.2 release

  ==> Input File <==

--------------------------------------------------------------------------
memory 8 gb

molecule {
symmetry c1
Cr        0.48028725377749    0.32716919378518    0.12128381663197
O         1.51332165941332    1.03448648135578   -0.78955553051410
O        -0.57831537187616    1.32157128739802    0.65757817076212
F        -0.29602430869141   -0.85637252313759   -0.76598418135575
F         1.28459076737678   -0.35182443940140    1.41848772447575
}

set basis def2-TZVP
set geom_maxiter 250

# Use a (75,302) quadrature grid
set dft_radial_points 75
set dft_spherical_points 302

# Very tight geometry optimization
set g_convergence gau_verytight
# Increase allowed number of geometry optimization steps
set geom_maxiter 250

# Use the Hueckel type guess
set guess huckel

my_dft = {
    "name": "my r2scan",
    "x_functionals": {"mgga_x_r2scan": {}},
    "c_functionals": {"mgga_c_r2scan": {}}
}
optimize('scf', dft_functional=my_dft)
--------------------------------------------------------------------------

    Molecular point group: c1
  Charge       = 0
  Multiplicity = 1
  Basis Set: DEF2-TZVP
    Blend: DEF2-TZVP
  Basis Set: (DEF2-TZVP AUX)
    Blend: DEF2-TZVP-JKFIT
  @DF-RKS Final Energy: -1394.72091017931234
    Total Energy =                      -1394.7209101793123409
    Molecular point group: c1
  Basis Set: DEF2-TZVP
    Blend: DEF2-TZVP
  Basis Set: (DEF2-TZVP AUX)
    Blend: DEF2-TZVP-JKFIT
  Basis Set: DEF2-TZVP
    Blend: DEF2-TZVP
  Basis Set: (DEF2-TZVP AUX)
    Blend: DEF2-TZVP-JKFIT
  @DF-RKS Final Energy: -1394.72227021046683
    Total Energy =                      -1394.7222702104668315
  Basis Set: DEF2-TZVP
    Blend: DEF2-TZVP
  Basis Set: (DEF2-TZVP AUX)
    Blend: DEF2-TZVP-JKFIT
  Basis Set: DEF2-TZVP
    Blend: DEF2-TZVP
  @DF-RKS Final Energy: -1394.72294472170802
    Total Energy =                      -1394.7229447217080178
  @DF-RKS Final Energy: -1394.72309112754283
    Total Energy =                      -1394.7230911275428298
  @DF-RKS Final Energy: -1394.72310994676491
    Total Energy =                      -1394.7231099467649074
  @DF-RKS Final Energy: -1394.72312359356374
    Total Energy =                      -1394.7231235935637415
  @DF-RKS Final Energy: -1394.72312799765837
    Total Energy =                      -1394.7231279976583664
  @DF-RKS Final Energy: -1394.72312828473582
    Total Energy =                      -1394.7231282847358216
  @DF-RKS Final Energy: -1394.72312828618942
    Total Energy =                      -1394.7231282861894215
  @DF-RKS Final Energy: -1394.72312820942034
    Total Energy =                      -1394.7231282094203380
  Basis Set: (DEF2-TZVP AUX)
    Blend: DEF2-TZVP-JKFIT
  Basis Set: DEF2-TZVP
    Blend: DEF2-TZVP
  Basis Set: (DEF2-TZVP AUX)
    Blend: DEF2-TZVP-JKFIT
  @DF-RKS Final Energy: -1394.72312795561970
    Total Energy =                      -1394.7231279556197023
  Basis Set: DEF2-TZVP
    Blend: DEF2-TZVP
  Basis Set: (DEF2-TZVP AUX)
    Blend: DEF2-TZVP-JKFIT
  Charge       = 0
  Multiplicity = 1
  Basis Set: DEF2-TZVP
    Blend: DEF2-TZVP
  Basis Set: (DEF2-TZVP AUX)
    Blend: DEF2-TZVP-JKFIT

    Orbital Energies [Eh]
    ---------------------

    Doubly Occupied:

       1A   -215.485745     2A    -24.794488     3A    -24.532817
       4A    -24.532814     5A    -21.066515     6A    -21.065957
       7A    -21.062930     8A    -19.052722     9A    -19.052721
      10A     -3.028426    11A     -1.979690    12A     -1.979295
      13A     -1.973119    14A     -1.165770    15A     -1.161219
      16A     -0.958957    17A     -0.948314    18A     -0.495653
      19A     -0.488367    20A     -0.471993    21A     -0.471868
      22A     -0.469970    23A     -0.436782    24A     -0.425510
      25A     -0.412849    26A     -0.393902    27A     -0.381000
      28A     -0.379789    29A     -0.339319

  @DF-RKS Final Energy: -1394.72312792661342

   => Energetics <=

    Nuclear Repulsion Energy =            350.7396417344967290
    One-Electron Energy =               -2618.1127438550493025
    Two-Electron Energy =                 959.0383776329568946
    DFT Exchange-Correlation Energy =     -86.3884034390176510
    Empirical Dispersion Energy =           0.0000000000000000
    VV10 Nonlocal Energy =                  0.0000000000000000
    Total Energy =                      -1394.7231279266134152

  Dipole Moment: [D]
     X:     0.0009      Y:    -0.0576      Z:     0.0127     Total:     0.0590

    Molecular point group: c1
  Basis Set: DEF2-TZVP
    Blend: DEF2-TZVP
  Basis Set: (DEF2-TZVP AUX)
    Blend: DEF2-TZVP-JKFIT

  -Total Gradient:
     Atom            X                  Y                   Z
    ------   -----------------  -----------------  -----------------
       1        0.000013209858    -0.000881209117     0.000193955614
       2        0.000013207039    -0.000881062104     0.000193953212
       3        0.000013327074    -0.000881144158     0.000193884684
       4        0.000013277837    -0.000880978861     0.000193988654
       5        0.000013170649    -0.000881006969     0.000193838640

  **** Optimization is complete! (in 12 steps) ****
    Final optimized geometry and variables:
    Molecular point group: c1

    Geometry (in Angstrom), charge = 0, multiplicity = 1:

    CR          -0.001061085194     0.070615487040    -0.015542303211
    O            1.018901693696     0.811346364362    -0.924641645047
    O           -1.047546301341     1.094970891699     0.505065786056
    F           -0.785591843818    -1.154082168716    -0.906520277489
    F            0.812608922639    -0.643920831876     1.302256438753

*** Psi4 exiting successfully. Buy a developer a beer!
