                               Psi4 1.3.2 release

  ==> Input File <==

--------------------------------------------------------------------------
memory 8 gb

molecule {
symmetry c1
Cr        0.48028725377749    0.32716919378518    0.12128381663197
O         1.51332165941332    1.03448648135578   -0.78955553051410
O        -0.57831537187616    1.32157128739802    0.65757817076212
F        -0.29602430869141   -0.85637252313759   -0.76598418135575
F         1.28459076737678   -0.35182443940140    1.41848772447575
}

set basis def2-TZVP
set geom_maxiter 250

# Use a (75,302) quadrature grid
set dft_radial_points 75
set dft_spherical_points 302

# Very tight geometry optimization
set g_convergence gau_verytight
# Increase allowed number of geometry optimization steps
set geom_maxiter 250

# Use the Hueckel type guess
set guess huckel

my_dft = {
    "name": "my pbe",
    "x_functionals": {"gga_x_pbe": {}},
    "c_functionals": {"gga_c_pbe": {}}
}
optimize('scf', dft_functional=my_dft)
--------------------------------------------------------------------------

    Molecular point group: c1
  Charge       = 0
  Multiplicity = 1
  Basis Set: DEF2-TZVP
    Blend: DEF2-TZVP
  Basis Set: (DEF2-TZVP AUX)
    Blend: DEF2-TZVP-JKFIT
  @DF-RKS Final Energy: -1394.36085240952116
    Total Energy =                      -1394.3608524095211578
    Molecular point group: c1
  Basis Set: DEF2-TZVP
    Blend: DEF2-TZVP
  Basis Set: (DEF2-TZVP AUX)
    Blend: DEF2-TZVP-JKFIT
  Basis Set: DEF2-TZVP
    Blend: DEF2-TZVP
  Basis Set: (DEF2-TZVP AUX)
    Blend: DEF2-TZVP-JKFIT
  @DF-RKS Final Energy: -1394.36331900700156
    Total Energy =                      -1394.3633190070015644
  Basis Set: DEF2-TZVP
    Blend: DEF2-TZVP
  Basis Set: (DEF2-TZVP AUX)
    Blend: DEF2-TZVP-JKFIT
  Basis Set: DEF2-TZVP
    Blend: DEF2-TZVP
  @DF-RKS Final Energy: -1394.36518418110745
    Total Energy =                      -1394.3651841811074519
  @DF-RKS Final Energy: -1394.36552229397012
    Total Energy =                      -1394.3655222939701162
  @DF-RKS Final Energy: -1394.36554274920491
    Total Energy =                      -1394.3655427492049057
  @DF-RKS Final Energy: -1394.36554537985648
    Total Energy =                      -1394.3655453798564849
  @DF-RKS Final Energy: -1394.36554624010796
    Total Energy =                      -1394.3655462401079603
  @DF-RKS Final Energy: -1394.36554636524988
    Total Energy =                      -1394.3655463652498838
  @DF-RKS Final Energy: -1394.36554643837508
    Total Energy =                      -1394.3655464383750768
  Basis Set: (DEF2-TZVP AUX)
    Blend: DEF2-TZVP-JKFIT
  Basis Set: DEF2-TZVP
    Blend: DEF2-TZVP
  Basis Set: (DEF2-TZVP AUX)
    Blend: DEF2-TZVP-JKFIT
  @DF-RKS Final Energy: -1394.36554653733765
    Total Energy =                      -1394.3655465373376501
  Basis Set: DEF2-TZVP
    Blend: DEF2-TZVP
  Basis Set: (DEF2-TZVP AUX)
    Blend: DEF2-TZVP-JKFIT
  Charge       = 0
  Multiplicity = 1
  Basis Set: DEF2-TZVP
    Blend: DEF2-TZVP
  Basis Set: (DEF2-TZVP AUX)
    Blend: DEF2-TZVP-JKFIT

    Orbital Energies [Eh]
    ---------------------

    Doubly Occupied:

       1A   -214.660536     2A    -24.476946     3A    -24.300980
       4A    -24.300976     5A    -20.843462     6A    -20.843348
       7A    -20.839467     8A    -18.846438     9A    -18.846437
      10A     -2.911730    11A     -1.906215    12A     -1.905198
      13A     -1.901335    14A     -1.101702    15A     -1.097214
      16A     -0.905462    17A     -0.895426    18A     -0.472916
      19A     -0.466881    20A     -0.449587    21A     -0.448802
      22A     -0.448336    23A     -0.417364    24A     -0.406421
      25A     -0.393253    26A     -0.377855    27A     -0.363766
      28A     -0.362914    29A     -0.323603

  @DF-RKS Final Energy: -1394.36554654964129

   => Energetics <=

    Nuclear Repulsion Energy =            347.5679800475090815
    One-Electron Energy =               -2612.0006817116886850
    Two-Electron Energy =                 956.0367312831730260
    DFT Exchange-Correlation Energy =     -85.9695761686348732
    Empirical Dispersion Energy =           0.0000000000000000
    VV10 Nonlocal Energy =                  0.0000000000000000
    Total Energy =                      -1394.3655465496412944

  Dipole Moment: [D]
     X:     0.0015      Y:    -0.1020      Z:     0.0224     Total:     0.1044

    Molecular point group: c1
  Basis Set: DEF2-TZVP
    Blend: DEF2-TZVP
  Basis Set: (DEF2-TZVP AUX)
    Blend: DEF2-TZVP-JKFIT

  -Total Gradient:
     Atom            X                  Y                   Z
    ------   -----------------  -----------------  -----------------
       1        0.000000237639    -0.000013907448     0.000003120132
       2       -0.000000196262    -0.000013586288     0.000003283932
       3        0.000000621323    -0.000013710013     0.000002721479
       4        0.000000392366    -0.000013037872     0.000003156693
       5       -0.000000043198    -0.000013122736     0.000002543799

  **** Optimization is complete! (in 11 steps) ****
    Final optimized geometry and variables:
    Molecular point group: c1

    Geometry (in Angstrom), charge = 0, multiplicity = 1:

    CR          -0.000984696251     0.065532384117    -0.014423532890
    O            1.025260093975     0.818102783418    -0.930802886104
    O           -1.054134391326     1.103504159382     0.507861821067
    F           -0.798969719022    -1.157837883267    -0.925111067017
    F            0.825971332693    -0.639140730962     1.320621771784

*** Psi4 exiting successfully. Buy a developer a beer!
