                               Psi4 1.3.2 release

  ==> Input File <==

--------------------------------------------------------------------------
memory 8 gb

molecule {
symmetry c1
Cr        0.48028725377749    0.32716919378518    0.12128381663197
O         1.51332165941332    1.03448648135578   -0.78955553051410
O        -0.57831537187616    1.32157128739802    0.65757817076212
F        -0.29602430869141   -0.85637252313759   -0.76598418135575
F         1.28459076737678   -0.35182443940140    1.41848772447575
}

set basis def2-SV(P)
set geom_maxiter 250

# Use a (75,302) quadrature grid
set dft_radial_points 75
set dft_spherical_points 302

# Very tight geometry optimization
set g_convergence gau_verytight
# Increase allowed number of geometry optimization steps
set geom_maxiter 250

# Use the Hueckel type guess
set guess huckel

my_dft = {
    "name": "my lda",
    "x_functionals": {"lda_x": {}},
    "c_functionals": {"lda_c_pw": {}}
}
optimize('scf', dft_functional=my_dft)
--------------------------------------------------------------------------

    Molecular point group: c1
  Charge       = 0
  Multiplicity = 1
  Basis Set: DEF2-SV(P)
    Blend: DEF2-SV(P)
  Basis Set: (DEF2-SV(P) AUX)
    Blend: DEF2-SV_P_-JKFIT
  @DF-RKS Final Energy: -1389.77775519698662
    Total Energy =                      -1389.7777551969866181
    Molecular point group: c1
  Basis Set: DEF2-SV(P)
    Blend: DEF2-SV(P)
  Basis Set: (DEF2-SV(P) AUX)
    Blend: DEF2-SV_P_-JKFIT
  Basis Set: DEF2-SV(P)
    Blend: DEF2-SV(P)
  Basis Set: (DEF2-SV(P) AUX)
    Blend: DEF2-SV_P_-JKFIT
  @DF-RKS Final Energy: -1389.77837836457684
    Total Energy =                      -1389.7783783645768381
  Basis Set: DEF2-SV(P)
    Blend: DEF2-SV(P)
  Basis Set: (DEF2-SV(P) AUX)
    Blend: DEF2-SV_P_-JKFIT
  Basis Set: DEF2-SV(P)
    Blend: DEF2-SV(P)
  @DF-RKS Final Energy: -1389.77845652937754
    Total Energy =                      -1389.7784565293775358
  @DF-RKS Final Energy: -1389.77852229330119
    Total Energy =                      -1389.7785222933011937
  @DF-RKS Final Energy: -1389.77852359847657
    Total Energy =                      -1389.7785235984765677
  @DF-RKS Final Energy: -1389.77852382422884
    Total Energy =                      -1389.7785238242288415
  @DF-RKS Final Energy: -1389.77852388877250
    Total Energy =                      -1389.7785238887724972
  @DF-RKS Final Energy: -1389.77852387470830
    Total Energy =                      -1389.7785238747082985
  @DF-RKS Final Energy: -1389.77852386233394
    Total Energy =                      -1389.7785238623339410
  @DF-RKS Final Energy: -1389.77852385253937
    Total Energy =                      -1389.7785238525393652
  @DF-RKS Final Energy: -1389.77852384696689
    Total Energy =                      -1389.7785238469668911
  Basis Set: (DEF2-SV(P) AUX)
    Blend: DEF2-SV_P_-JKFIT
  Basis Set: DEF2-SV(P)
    Blend: DEF2-SV(P)
  Basis Set: (DEF2-SV(P) AUX)
    Blend: DEF2-SV_P_-JKFIT
  @DF-RKS Final Energy: -1389.77852384234734
    Total Energy =                      -1389.7785238423473402
  Basis Set: DEF2-SV(P)
    Blend: DEF2-SV(P)
  Basis Set: (DEF2-SV(P) AUX)
    Blend: DEF2-SV_P_-JKFIT
  Charge       = 0
  Multiplicity = 1
  Basis Set: DEF2-SV(P)
    Blend: DEF2-SV(P)
  Basis Set: (DEF2-SV(P) AUX)
    Blend: DEF2-SV_P_-JKFIT

    Orbital Energies [Eh]
    ---------------------

    Doubly Occupied:

       1A   -214.157096     2A    -24.447270     3A    -24.144726
       4A    -24.144724     5A    -20.869416     6A    -20.868820
       7A    -20.864781     8A    -18.701396     9A    -18.701386
      10A     -2.903178    11A     -1.910865    12A     -1.910796
      13A     -1.905432    14A     -1.073607    15A     -1.068143
      16A     -0.883495    17A     -0.872523    18A     -0.484544
      19A     -0.477971    20A     -0.463547    21A     -0.463000
      22A     -0.459883    23A     -0.421775    24A     -0.412625
      25A     -0.396471    26A     -0.380739    27A     -0.367178
      28A     -0.365260    29A     -0.324782

  @DF-RKS Final Energy: -1389.77852384222660

   => Energetics <=

    Nuclear Repulsion Energy =            353.7147977079655448
    One-Electron Energy =               -2622.5242600397150454
    Two-Electron Energy =                 960.8953228695262396
    DFT Exchange-Correlation Energy =     -81.8643843800035711
    Empirical Dispersion Energy =           0.0000000000000000
    VV10 Nonlocal Energy =                  0.0000000000000000
    Total Energy =                      -1389.7785238422266048

  Dipole Moment: [D]
     X:     0.0048      Y:    -0.3184      Z:     0.0701     Total:     0.3261

    Molecular point group: c1
  Basis Set: DEF2-SV(P)
    Blend: DEF2-SV(P)
  Basis Set: (DEF2-SV(P) AUX)
    Blend: DEF2-SV_P_-JKFIT

  -Total Gradient:
     Atom            X                  Y                   Z
    ------   -----------------  -----------------  -----------------
       1        0.000000288376    -0.000021963863     0.000004847777
       2        0.000001150931    -0.000019298880     0.000003627980
       3       -0.000000553431    -0.000019060805     0.000004805939
       4        0.000000252695    -0.000019493305     0.000004214923
       5        0.000000353825    -0.000019465247     0.000004354723

  **** Optimization is complete! (in 13 steps) ****
    Final optimized geometry and variables:
    Molecular point group: c1

    Geometry (in Angstrom), charge = 0, multiplicity = 1:

    CR          -0.000886720779     0.059009379123    -0.012987793602
    O            1.011916285527     0.802427766958    -0.917527320488
    O           -1.040263450280     1.084094007135     0.502308356223
    F           -0.785519896097    -1.129744939832    -0.911244379364
    F            0.811809853302    -0.619861668883     1.296328556897

*** Psi4 exiting successfully. Buy a developer a beer!
