                               Psi4 1.3.2 release

  ==> Input File <==

--------------------------------------------------------------------------
memory 8 gb

molecule {
symmetry c1
Cr        0.48028725377749    0.32716919378518    0.12128381663197
O         1.51332165941332    1.03448648135578   -0.78955553051410
O        -0.57831537187616    1.32157128739802    0.65757817076212
F        -0.29602430869141   -0.85637252313759   -0.76598418135575
F         1.28459076737678   -0.35182443940140    1.41848772447575
}

set basis STO-3G
set geom_maxiter 250

# Use a (75,302) quadrature grid
set dft_radial_points 75
set dft_spherical_points 302

# Very tight geometry optimization
set g_convergence gau_verytight
# Increase allowed number of geometry optimization steps
set geom_maxiter 250

# Use the Hueckel type guess
set guess huckel

my_dft = {
    "name": "my lda",
    "x_functionals": {"lda_x": {}},
    "c_functionals": {"lda_c_pw": {}}
}
optimize('scf', dft_functional=my_dft)
--------------------------------------------------------------------------

    Molecular point group: c1
  Charge       = 0
  Multiplicity = 1
  Basis Set: STO-3G
    Blend: STO-3G
  Basis Set: (STO-3G AUX)
    Blend: DEF2-SVP-JKFIT
  @DF-RKS Final Energy: -1374.31613880896452
    Total Energy =                      -1374.3161388089645243
    Molecular point group: c1
  Basis Set: STO-3G
    Blend: STO-3G
  Basis Set: (STO-3G AUX)
    Blend: DEF2-SVP-JKFIT
  Basis Set: STO-3G
    Blend: STO-3G
  Basis Set: (STO-3G AUX)
    Blend: DEF2-SVP-JKFIT
  @DF-RKS Final Energy: -1374.33078348570666
    Total Energy =                      -1374.3307834857066609
  Basis Set: STO-3G
    Blend: STO-3G
  Basis Set: (STO-3G AUX)
    Blend: DEF2-SVP-JKFIT
  Basis Set: STO-3G
    Blend: STO-3G
  @DF-RKS Final Energy: -1374.34128552041807
    Total Energy =                      -1374.3412855204180687
  @DF-RKS Final Energy: -1374.34229185719119
    Total Energy =                      -1374.3422918571911850
  @DF-RKS Final Energy: -1374.34236304322894
    Total Energy =                      -1374.3423630432289428
  @DF-RKS Final Energy: -1374.34236734952378
    Total Energy =                      -1374.3423673495237836
  @DF-RKS Final Energy: -1374.34236790440809
    Total Energy =                      -1374.3423679044080927
  Basis Set: (STO-3G AUX)
    Blend: DEF2-SVP-JKFIT
  Basis Set: STO-3G
    Blend: STO-3G
  Basis Set: (STO-3G AUX)
    Blend: DEF2-SVP-JKFIT
  @DF-RKS Final Energy: -1374.34236796480059
    Total Energy =                      -1374.3423679648005873
  Basis Set: STO-3G
    Blend: STO-3G
  Basis Set: (STO-3G AUX)
    Blend: DEF2-SVP-JKFIT
  Charge       = 0
  Multiplicity = 1
  Basis Set: STO-3G
    Blend: STO-3G
  Basis Set: (STO-3G AUX)
    Blend: DEF2-SVP-JKFIT

    Orbital Energies [Eh]
    ---------------------

    Doubly Occupied:

       1A   -212.002541     2A    -24.011246     3A    -23.837830
       4A    -23.837591     5A    -20.900819     6A    -20.900128
       7A    -20.898398     8A    -18.315987     9A    -18.315566
      10A     -2.859790    11A     -1.892164    12A     -1.888325
      13A     -1.888235    14A     -1.001650    15A     -0.994161
      16A     -0.759320    17A     -0.745359    18A     -0.324461
      19A     -0.317316    20A     -0.308990    21A     -0.284722
      22A     -0.277271    23A     -0.248637    24A     -0.247197
      25A     -0.203412    26A     -0.180353    27A     -0.176222
      28A     -0.171245    29A     -0.124855

  @DF-RKS Final Energy: -1374.34236796563414

   => Energetics <=

    Nuclear Repulsion Energy =            371.7445169715958286
    One-Electron Energy =               -2640.6831176535738450
    Two-Electron Energy =                 976.5850768164298188
    DFT Exchange-Correlation Energy =     -81.9888441000856716
    Empirical Dispersion Energy =           0.0000000000000000
    VV10 Nonlocal Energy =                  0.0000000000000000
    Total Energy =                      -1374.3423679656341392

  Dipole Moment: [D]
     X:     0.0225      Y:    -1.4960      Z:     0.3293     Total:     1.5320

    Molecular point group: c1
  Basis Set: STO-3G
    Blend: STO-3G
  Basis Set: (STO-3G AUX)
    Blend: DEF2-SVP-JKFIT

  -Total Gradient:
     Atom            X                  Y                   Z
    ------   -----------------  -----------------  -----------------
       1       -0.000000189119     0.000012263645    -0.000002779762
       2        0.000000686271     0.000011956203    -0.000003233902
       3       -0.000001061250     0.000012219807    -0.000002031149
       4       -0.000000540196     0.000011438760    -0.000003049226
       5        0.000000209843     0.000011676289    -0.000002013310

  **** Optimization is complete! (in 9 steps) ****
    Final optimized geometry and variables:
    Molecular point group: c1

    Geometry (in Angstrom), charge = 0, multiplicity = 1:

    CR          -0.000934070999     0.062161577503    -0.013681642202
    O            0.981296257251     0.766812655194    -0.887145543007
    O           -1.008444244233     1.039908870089     0.489490504958
    F           -0.726331384617    -1.081427661530    -0.835280455210
    F            0.751741196708    -0.609612373078     1.207474357143

*** Psi4 exiting successfully. Buy a developer a beer!
