                               Psi4 1.3.2 release

  ==> Input File <==

--------------------------------------------------------------------------
memory 8 gb

molecule {
symmetry c1
Cr        0.48028725377749    0.32716919378518    0.12128381663197
O         1.51332165941332    1.03448648135578   -0.78955553051410
O        -0.57831537187616    1.32157128739802    0.65757817076212
F        -0.29602430869141   -0.85637252313759   -0.76598418135575
F         1.28459076737678   -0.35182443940140    1.41848772447575
}

set basis def2-SV(P)
set geom_maxiter 250

# Use a (75,302) quadrature grid
set dft_radial_points 75
set dft_spherical_points 302

# Very tight geometry optimization
set g_convergence gau_verytight
# Increase allowed number of geometry optimization steps
set geom_maxiter 250

# Use the Hueckel type guess
set guess huckel

my_dft = {
    "name": "my r2scan",
    "x_functionals": {"mgga_x_r2scan": {}},
    "c_functionals": {"mgga_c_r2scan": {}}
}
optimize('scf', dft_functional=my_dft)
--------------------------------------------------------------------------

    Molecular point group: c1
  Charge       = 0
  Multiplicity = 1
  Basis Set: DEF2-SV(P)
    Blend: DEF2-SV(P)
  Basis Set: (DEF2-SV(P) AUX)
    Blend: DEF2-SV_P_-JKFIT
  @DF-RKS Final Energy: -1394.11755895189731
    Total Energy =                      -1394.1175589518973084
    Molecular point group: c1
  Basis Set: DEF2-SV(P)
    Blend: DEF2-SV(P)
  Basis Set: (DEF2-SV(P) AUX)
    Blend: DEF2-SV_P_-JKFIT
  Basis Set: DEF2-SV(P)
    Blend: DEF2-SV(P)
  Basis Set: (DEF2-SV(P) AUX)
    Blend: DEF2-SV_P_-JKFIT
  @DF-RKS Final Energy: -1394.11869323869837
    Total Energy =                      -1394.1186932386983699
  Basis Set: DEF2-SV(P)
    Blend: DEF2-SV(P)
  Basis Set: (DEF2-SV(P) AUX)
    Blend: DEF2-SV_P_-JKFIT
  Basis Set: DEF2-SV(P)
    Blend: DEF2-SV(P)
  @DF-RKS Final Energy: -1394.11913276955534
    Total Energy =                      -1394.1191327695553355
  @DF-RKS Final Energy: -1394.11929614783003
    Total Energy =                      -1394.1192961478300276
  @DF-RKS Final Energy: -1394.11930788096515
    Total Energy =                      -1394.1193078809651524
  @DF-RKS Final Energy: -1394.11931613471347
    Total Energy =                      -1394.1193161347134719
  @DF-RKS Final Energy: -1394.11931826706223
    Total Energy =                      -1394.1193182670622264
  @DF-RKS Final Energy: -1394.11931832775190
    Total Energy =                      -1394.1193183277518983
  @DF-RKS Final Energy: -1394.11931825575675
    Total Energy =                      -1394.1193182557567525
  @DF-RKS Final Energy: -1394.11931815928551
    Total Energy =                      -1394.1193181592855126
  @DF-RKS Final Energy: -1394.11931808363761
    Total Energy =                      -1394.1193180836376087
  Basis Set: (DEF2-SV(P) AUX)
    Blend: DEF2-SV_P_-JKFIT
  Basis Set: DEF2-SV(P)
    Blend: DEF2-SV(P)
  Basis Set: (DEF2-SV(P) AUX)
    Blend: DEF2-SV_P_-JKFIT
  @DF-RKS Final Energy: -1394.11931804673827
    Total Energy =                      -1394.1193180467382717
  Basis Set: DEF2-SV(P)
    Blend: DEF2-SV(P)
  Basis Set: (DEF2-SV(P) AUX)
    Blend: DEF2-SV_P_-JKFIT
  Charge       = 0
  Multiplicity = 1
  Basis Set: DEF2-SV(P)
    Blend: DEF2-SV(P)
  Basis Set: (DEF2-SV(P) AUX)
    Blend: DEF2-SV_P_-JKFIT

    Orbital Energies [Eh]
    ---------------------

    Doubly Occupied:

       1A   -215.554446     2A    -24.847782     3A    -24.542439
       4A    -24.542434     5A    -21.128905     6A    -21.128748
       7A    -21.125182     8A    -19.062117     9A    -19.062109
      10A     -3.044396    11A     -1.995420    12A     -1.994280
      13A     -1.987743    14A     -1.141380    15A     -1.136803
      16A     -0.946705    17A     -0.936072    18A     -0.494669
      19A     -0.487993    20A     -0.474404    21A     -0.473453
      22A     -0.472251    23A     -0.434512    24A     -0.422425
      25A     -0.410900    26A     -0.394744    27A     -0.379169
      28A     -0.379121    29A     -0.339701

  @DF-RKS Final Energy: -1394.11931803819493

   => Energetics <=

    Nuclear Repulsion Energy =            351.4856536427889750
    One-Electron Energy =               -2617.8224485784403441
    Two-Electron Energy =                 958.4768208112955108
    DFT Exchange-Correlation Energy =     -86.2593439138389328
    Empirical Dispersion Energy =           0.0000000000000000
    VV10 Nonlocal Energy =                  0.0000000000000000
    Total Energy =                      -1394.1193180381949333

  Dipole Moment: [D]
     X:     0.0023      Y:    -0.1534      Z:     0.0338     Total:     0.1571

    Molecular point group: c1
  Basis Set: DEF2-SV(P)
    Blend: DEF2-SV(P)
  Basis Set: (DEF2-SV(P) AUX)
    Blend: DEF2-SV_P_-JKFIT

  -Total Gradient:
     Atom            X                  Y                   Z
    ------   -----------------  -----------------  -----------------
       1        0.000011965468    -0.000795431507     0.000175076499
       2        0.000012385103    -0.000794020437     0.000174431346
       3        0.000011478208    -0.000793917160     0.000175063416
       4        0.000012084257    -0.000793875025     0.000174968332
       5        0.000011758504    -0.000793974426     0.000174516914

  **** Optimization is complete! (in 13 steps) ****
    Final optimized geometry and variables:
    Molecular point group: c1

    Geometry (in Angstrom), charge = 0, multiplicity = 1:

    CR          -0.001009654874     0.067194786410    -0.014789436104
    O            1.017590620539     0.807857845855    -0.922887267772
    O           -1.046124713343     1.091107143959     0.504929565528
    F           -0.786497857957    -1.146563107810    -0.909321287770
    F            0.813281285967    -0.635897965877     1.301636815355

*** Psi4 exiting successfully. Buy a developer a beer!
