                               Psi4 1.3.2 release

  ==> Input File <==

--------------------------------------------------------------------------
memory 8 gb

molecule {
symmetry c1
Cr        0.48028725377749    0.32716919378518    0.12128381663197
O         1.51332165941332    1.03448648135578   -0.78955553051410
O        -0.57831537187616    1.32157128739802    0.65757817076212
F        -0.29602430869141   -0.85637252313759   -0.76598418135575
F         1.28459076737678   -0.35182443940140    1.41848772447575
}

set basis def2-SVP
set geom_maxiter 250

# Use a (75,302) quadrature grid
set dft_radial_points 75
set dft_spherical_points 302

# Very tight geometry optimization
set g_convergence gau_verytight
# Increase allowed number of geometry optimization steps
set geom_maxiter 250

# Use the Hueckel type guess
set guess huckel

my_dft = {
    "name": "my pbe",
    "x_functionals": {"gga_x_pbe": {}},
    "c_functionals": {"gga_c_pbe": {}}
}
optimize('scf', dft_functional=my_dft)
--------------------------------------------------------------------------

    Molecular point group: c1
  Charge       = 0
  Multiplicity = 1
  Basis Set: DEF2-SVP
    Blend: DEF2-SVP
  Basis Set: (DEF2-SVP AUX)
    Blend: DEF2-SVP-JKFIT
  @DF-RKS Final Energy: -1393.77623416381289
    Total Energy =                      -1393.7762341638128873
    Molecular point group: c1
  Basis Set: DEF2-SVP
    Blend: DEF2-SVP
  Basis Set: (DEF2-SVP AUX)
    Blend: DEF2-SVP-JKFIT
  Basis Set: DEF2-SVP
    Blend: DEF2-SVP
  Basis Set: (DEF2-SVP AUX)
    Blend: DEF2-SVP-JKFIT
  @DF-RKS Final Energy: -1393.77752760508338
    Total Energy =                      -1393.7775276050833781
  Basis Set: DEF2-SVP
    Blend: DEF2-SVP
  Basis Set: (DEF2-SVP AUX)
    Blend: DEF2-SVP-JKFIT
  Basis Set: DEF2-SVP
    Blend: DEF2-SVP
  @DF-RKS Final Energy: -1393.77811764847775
    Total Energy =                      -1393.7781176484777461
  @DF-RKS Final Energy: -1393.77842060605121
    Total Energy =                      -1393.7784206060512133
  @DF-RKS Final Energy: -1393.77842747357431
    Total Energy =                      -1393.7784274735743111
  @DF-RKS Final Energy: -1393.77842831419389
    Total Energy =                      -1393.7784283141938886
  @DF-RKS Final Energy: -1393.77842850814091
    Total Energy =                      -1393.7784285081409053
  @DF-RKS Final Energy: -1393.77842850543402
    Total Energy =                      -1393.7784285054340216
  @DF-RKS Final Energy: -1393.77842850249590
    Total Energy =                      -1393.7784285024958990
  @DF-RKS Final Energy: -1393.77842849701847
    Total Energy =                      -1393.7784284970184672
  @DF-RKS Final Energy: -1393.77842849456511
    Total Energy =                      -1393.7784284945651052
  @DF-RKS Final Energy: -1393.77842849047465
    Total Energy =                      -1393.7784284904746528
  @DF-RKS Final Energy: -1393.77842848887735
    Total Energy =                      -1393.7784284888773527
  @DF-RKS Final Energy: -1393.77842848692717
    Total Energy =                      -1393.7784284869271687
  @DF-RKS Final Energy: -1393.77842848595901
    Total Energy =                      -1393.7784284859590116
  @DF-RKS Final Energy: -1393.77842848492787
    Total Energy =                      -1393.7784284849278720
  Basis Set: (DEF2-SVP AUX)
    Blend: DEF2-SVP-JKFIT
  Basis Set: DEF2-SVP
    Blend: DEF2-SVP
  Basis Set: (DEF2-SVP AUX)
    Blend: DEF2-SVP-JKFIT
  @DF-RKS Final Energy: -1393.77842848426280
    Total Energy =                      -1393.7784284842628040
  Basis Set: DEF2-SVP
    Blend: DEF2-SVP
  Basis Set: (DEF2-SVP AUX)
    Blend: DEF2-SVP-JKFIT
  Charge       = 0
  Multiplicity = 1
  Basis Set: DEF2-SVP
    Blend: DEF2-SVP
  Basis Set: (DEF2-SVP AUX)
    Blend: DEF2-SVP-JKFIT

    Orbital Energies [Eh]
    ---------------------

    Doubly Occupied:

       1A   -214.716342     2A    -24.518251     3A    -24.305549
       4A    -24.305547     5A    -20.896099     6A    -20.895684
       7A    -20.891818     8A    -18.847106     9A    -18.847099
      10A     -2.918428    11A     -1.912416    12A     -1.912153
      13A     -1.907174    14A     -1.075207    15A     -1.070237
      16A     -0.886877    17A     -0.876679    18A     -0.468683
      19A     -0.462578    20A     -0.447085    21A     -0.446845
      22A     -0.446277    23A     -0.410473    24A     -0.398582
      25A     -0.385583    26A     -0.371347    27A     -0.357108
      28A     -0.355772    29A     -0.317522

  @DF-RKS Final Energy: -1393.77842848131536

   => Energetics <=

    Nuclear Repulsion Energy =            350.5184605339884456
    One-Electron Energy =               -2616.5114900519174626
    Two-Electron Energy =                 958.1080838139631624
    DFT Exchange-Correlation Energy =     -85.8934827773494618
    Empirical Dispersion Energy =           0.0000000000000000
    VV10 Nonlocal Energy =                  0.0000000000000000
    Total Energy =                      -1393.7784284813153590

  Dipole Moment: [D]
     X:     0.0040      Y:    -0.2630      Z:     0.0579     Total:     0.2694

    Molecular point group: c1
  Basis Set: DEF2-SVP
    Blend: DEF2-SVP
  Basis Set: (DEF2-SVP AUX)
    Blend: DEF2-SVP-JKFIT

  -Total Gradient:
     Atom            X                  Y                   Z
    ------   -----------------  -----------------  -----------------
       1        0.000000351461    -0.000023224883     0.000005112508
       2        0.000001249503    -0.000020150112     0.000003749020
       3       -0.000000648624    -0.000019891443     0.000005061607
       4        0.000000600867    -0.000020189892     0.000004876139
       5        0.000000006985    -0.000020380318     0.000004055001

  **** Optimization is complete! (in 18 steps) ****
    Final optimized geometry and variables:
    Molecular point group: c1

    Geometry (in Angstrom), charge = 0, multiplicity = 1:

    CR          -0.000935571864     0.062264414714    -0.013704260538
    O            1.017649619349     0.810404845918    -0.923518261490
    O           -1.046260703247     1.093680957824     0.504433471173
    F           -0.793547984788    -1.144207542035    -0.919978628825
    F            0.820193693693    -0.629085444275     1.310276255726

*** Psi4 exiting successfully. Buy a developer a beer!
