                               Psi4 1.3.2 release

  ==> Input File <==

--------------------------------------------------------------------------
memory 8 gb

molecule {
symmetry c1
Cr        0.48028725377749    0.32716919378518    0.12128381663197
O         1.51332165941332    1.03448648135578   -0.78955553051410
O        -0.57831537187616    1.32157128739802    0.65757817076212
F        -0.29602430869141   -0.85637252313759   -0.76598418135575
F         1.28459076737678   -0.35182443940140    1.41848772447575
}

set basis def2-SV(P)
set geom_maxiter 250

# Use a (75,302) quadrature grid
set dft_radial_points 75
set dft_spherical_points 302

# Very tight geometry optimization
set g_convergence gau_verytight
# Increase allowed number of geometry optimization steps
set geom_maxiter 250

# Use the Hueckel type guess
set guess huckel

my_dft = {
    "name": "my pbe",
    "x_functionals": {"gga_x_pbe": {}},
    "c_functionals": {"gga_c_pbe": {}}
}
optimize('scf', dft_functional=my_dft)
--------------------------------------------------------------------------

    Molecular point group: c1
  Charge       = 0
  Multiplicity = 1
  Basis Set: DEF2-SV(P)
    Blend: DEF2-SV(P)
  Basis Set: (DEF2-SV(P) AUX)
    Blend: DEF2-SV_P_-JKFIT
  @DF-RKS Final Energy: -1393.76201915194338
    Total Energy =                      -1393.7620191519433774
    Molecular point group: c1
  Basis Set: DEF2-SV(P)
    Blend: DEF2-SV(P)
  Basis Set: (DEF2-SV(P) AUX)
    Blend: DEF2-SV_P_-JKFIT
  Basis Set: DEF2-SV(P)
    Blend: DEF2-SV(P)
  Basis Set: (DEF2-SV(P) AUX)
    Blend: DEF2-SV_P_-JKFIT
  @DF-RKS Final Energy: -1393.76392978641343
    Total Energy =                      -1393.7639297864134278
  Basis Set: DEF2-SV(P)
    Blend: DEF2-SV(P)
  Basis Set: (DEF2-SV(P) AUX)
    Blend: DEF2-SV_P_-JKFIT
  Basis Set: DEF2-SV(P)
    Blend: DEF2-SV(P)
  @DF-RKS Final Energy: -1393.76513892038383
    Total Energy =                      -1393.7651389203838335
  @DF-RKS Final Energy: -1393.76549716377031
    Total Energy =                      -1393.7654971637703056
  @DF-RKS Final Energy: -1393.76551128954134
    Total Energy =                      -1393.7655112895413367
  @DF-RKS Final Energy: -1393.76551246837948
    Total Energy =                      -1393.7655124683794838
  @DF-RKS Final Energy: -1393.76551307267118
    Total Energy =                      -1393.7655130726711832
  @DF-RKS Final Energy: -1393.76551317129815
    Total Energy =                      -1393.7655131712981529
  @DF-RKS Final Energy: -1393.76551322333262
    Total Energy =                      -1393.7655132233326185
  @DF-RKS Final Energy: -1393.76551325408309
    Total Energy =                      -1393.7655132540830891
  Basis Set: (DEF2-SV(P) AUX)
    Blend: DEF2-SV_P_-JKFIT
  Basis Set: DEF2-SV(P)
    Blend: DEF2-SV(P)
  Basis Set: (DEF2-SV(P) AUX)
    Blend: DEF2-SV_P_-JKFIT
  @DF-RKS Final Energy: -1393.76551328666460
    Total Energy =                      -1393.7655132866645999
  Basis Set: DEF2-SV(P)
    Blend: DEF2-SV(P)
  Basis Set: (DEF2-SV(P) AUX)
    Blend: DEF2-SV_P_-JKFIT
  Charge       = 0
  Multiplicity = 1
  Basis Set: DEF2-SV(P)
    Blend: DEF2-SV(P)
  Basis Set: (DEF2-SV(P) AUX)
    Blend: DEF2-SV_P_-JKFIT

    Orbital Energies [Eh]
    ---------------------

    Doubly Occupied:

       1A   -214.719110     2A    -24.520639     3A    -24.306476
       4A    -24.306474     5A    -20.898531     6A    -20.898082
       7A    -20.894166     8A    -18.849808     9A    -18.849805
      10A     -2.921147    11A     -1.914604    12A     -1.914354
      13A     -1.909506    14A     -1.074245    15A     -1.069617
      16A     -0.889010    17A     -0.878845    18A     -0.467667
      19A     -0.461863    20A     -0.446387    21A     -0.446153
      22A     -0.445552    23A     -0.410306    24A     -0.398427
      25A     -0.385903    26A     -0.373090    27A     -0.357404
      28A     -0.355453    29A     -0.318082

  @DF-RKS Final Energy: -1393.76551328963933

   => Energetics <=

    Nuclear Repulsion Energy =            348.7766359624492907
    One-Electron Energy =               -2612.9525728529742992
    Two-Electron Energy =                 956.2864868459352010
    DFT Exchange-Correlation Energy =     -85.8760632450494796
    Empirical Dispersion Energy =           0.0000000000000000
    VV10 Nonlocal Energy =                  0.0000000000000000
    Total Energy =                      -1393.7655132896393297

  Dipole Moment: [D]
     X:     0.0036      Y:    -0.2383      Z:     0.0524     Total:     0.2440

    Molecular point group: c1
  Basis Set: DEF2-SV(P)
    Blend: DEF2-SV(P)
  Basis Set: (DEF2-SV(P) AUX)
    Blend: DEF2-SV_P_-JKFIT

  -Total Gradient:
     Atom            X                  Y                   Z
    ------   -----------------  -----------------  -----------------
       1        0.000000197527    -0.000019822632     0.000004448298
       2        0.000000229522    -0.000019825057     0.000004413359
       3        0.000000520346    -0.000020034436     0.000004251709
       4        0.000000389230    -0.000019496101     0.000004477687
       5        0.000000147015    -0.000019563937     0.000004141904

  **** Optimization is complete! (in 12 steps) ****
    Final optimized geometry and variables:
    Molecular point group: c1

    Geometry (in Angstrom), charge = 0, multiplicity = 1:

    CR          -0.000927169374     0.061703251878    -0.013580738439
    O            1.022903528693     0.813181008045    -0.927961007424
    O           -1.051619888380     1.097913825149     0.507333571481
    F           -0.798867968874    -1.148099620350    -0.926895895710
    F            0.825579338437    -0.629560140640     1.318154586790

*** Psi4 exiting successfully. Buy a developer a beer!
