   * xtb version 6.4.1-1.fc34.fc34 compiled by Fedora project on Fri Jun 11 20:36:47 UTC 2021
          program call               : xtb cro2f2.xyz --opt --gfn 1
          number of atoms            :                     5
          number of electrons        :                    32
          charge                     :                     0
          spin                       :                   0.0

   ID    Z sym.   atoms
    1   24 Cr     1
    2    8 O      2, 3
    3    9 F      4, 5

          :  Hamiltonian                  GFN1-xTB          :
 * total energy  :   -55.7772533 Eh     change       -0.1421085E-10 Eh
 * total energy  :   -65.5038201 Eh     change       -0.9726567E+01 Eh
 * total energy  :   -75.4264164 Eh     change       -0.9922596E+01 Eh
 * total energy  :   -69.6488594 Eh     change        0.5777557E+01 Eh
 * total energy  :   -82.6908601 Eh     change       -0.1304200E+02 Eh
 * total energy  :   -94.1805640 Eh     change       -0.1148970E+02 Eh
 * total energy  :   -81.2106791 Eh     change        0.1296988E+02 Eh
 * total energy  :  -108.4692679 Eh     change       -0.2725859E+02 Eh
 * total energy  :   -79.5298609 Eh     change        0.2893941E+02 Eh
 * total energy  :  -115.6048516 Eh     change       -0.3607499E+02 Eh
 * total energy  :  -127.4182933 Eh     change       -0.1716957E+02 Eh
 * total energy  :  -117.4525819 Eh     change        0.9965711E+01 Eh
 * total energy  :  -127.3236089 Eh     change       -0.9871027E+01 Eh
 * total energy  :   -61.2730056 Eh     change        0.6605060E+02 Eh
 * total energy  :   -74.2653765 Eh     change       -0.1299237E+02 Eh
 * total energy  :   -84.3163656 Eh     change       -0.1005099E+02 Eh
 * total energy  :   -90.4993732 Eh     change       -0.6183008E+01 Eh
 * total energy  :   -88.9627267 Eh     change        0.1536646E+01 Eh
 * total energy  :  -111.9466283 Eh     change       -0.2298390E+02 Eh
 * total energy  :   -81.2454493 Eh     change        0.3070118E+02 Eh

 final structure:
================
5
 xtb: 6.4.1-1.fc34.fc34
Cr        0.48028725377749    0.32716919378518    0.12128381663197
O         1.51332165941332    1.03448648135578   -0.78955553051410
O        -0.57831537187616    1.32157128739802    0.65757817076212
F        -0.29602430869141   -0.85637252313759   -0.76598418135575
F         1.28459076737678   -0.35182443940140    1.41848772447575

          :  Hamiltonian                  GFN1-xTB          :
abnormal termination of xtb
         :: total energy             -55.777253323467 Eh    ::
         :: gradient norm              9.249258554635 Eh/a0 ::
         :: HOMO-LUMO gap              2.467653748344 eV    ::
         :: SCC energy               -55.858674783236 Eh    ::
         :: repulsion energy           0.082592073726 Eh    ::
