                               Psi4 1.3.2 release

  ==> Input File <==

--------------------------------------------------------------------------
memory 8 gb

molecule {
symmetry c1
Cr        0.48028725377749    0.32716919378518    0.12128381663197
O         1.51332165941332    1.03448648135578   -0.78955553051410
O        -0.57831537187616    1.32157128739802    0.65757817076212
F        -0.29602430869141   -0.85637252313759   -0.76598418135575
F         1.28459076737678   -0.35182443940140    1.41848772447575
}

set basis STO-3G
set geom_maxiter 250

# Use a (75,302) quadrature grid
set dft_radial_points 75
set dft_spherical_points 302

# Very tight geometry optimization
set g_convergence gau_verytight
# Increase allowed number of geometry optimization steps
set geom_maxiter 250

# Use the Hueckel type guess
set guess huckel

my_dft = {
    "name": "my pbe",
    "x_functionals": {"gga_x_pbe": {}},
    "c_functionals": {"gga_c_pbe": {}}
}
optimize('scf', dft_functional=my_dft)
--------------------------------------------------------------------------

    Molecular point group: c1
  Charge       = 0
  Multiplicity = 1
  Basis Set: STO-3G
    Blend: STO-3G
  Basis Set: (STO-3G AUX)
    Blend: DEF2-SVP-JKFIT
  @DF-RKS Final Energy: -1378.42369939647665
    Total Energy =                      -1378.4236993964766498
    Molecular point group: c1
  Basis Set: STO-3G
    Blend: STO-3G
  Basis Set: (STO-3G AUX)
    Blend: DEF2-SVP-JKFIT
  Basis Set: STO-3G
    Blend: STO-3G
  Basis Set: (STO-3G AUX)
    Blend: DEF2-SVP-JKFIT
  @DF-RKS Final Energy: -1378.43184268065647
    Total Energy =                      -1378.4318426806564730
  Basis Set: STO-3G
    Blend: STO-3G
  Basis Set: (STO-3G AUX)
    Blend: DEF2-SVP-JKFIT
  Basis Set: STO-3G
    Blend: STO-3G
  @DF-RKS Final Energy: -1378.43795610350458
    Total Energy =                      -1378.4379561035045754
  @DF-RKS Final Energy: -1378.43831827019812
    Total Energy =                      -1378.4383182701981241
  @DF-RKS Final Energy: -1378.43833367993011
    Total Energy =                      -1378.4383336799301105
  @DF-RKS Final Energy: -1378.43833533480688
    Total Energy =                      -1378.4383353348068795
  @DF-RKS Final Energy: -1378.43833592396709
    Total Energy =                      -1378.4383359239670881
  @DF-RKS Final Energy: -1378.43833593686895
    Total Energy =                      -1378.4383359368689526
  Basis Set: (STO-3G AUX)
    Blend: DEF2-SVP-JKFIT
  Basis Set: STO-3G
    Blend: STO-3G
  Basis Set: (STO-3G AUX)
    Blend: DEF2-SVP-JKFIT
  @DF-RKS Final Energy: -1378.43833593825025
    Total Energy =                      -1378.4383359382502476
  Basis Set: STO-3G
    Blend: STO-3G
  Basis Set: (STO-3G AUX)
    Blend: DEF2-SVP-JKFIT
  Charge       = 0
  Multiplicity = 1
  Basis Set: STO-3G
    Blend: STO-3G
  Basis Set: (STO-3G AUX)
    Blend: DEF2-SVP-JKFIT

    Orbital Energies [Eh]
    ---------------------

    Doubly Occupied:

       1A   -212.552886     2A    -24.106863     3A    -24.002369
       4A    -24.002181     5A    -20.931012     6A    -20.930268
       7A    -20.928551     8A    -18.467066     9A    -18.466729
      10A     -2.878697    11A     -1.897145    12A     -1.893518
      13A     -1.893388    14A     -1.002376    15A     -0.995873
      16A     -0.764937    17A     -0.752107    18A     -0.309969
      19A     -0.302563    20A     -0.293654    21A     -0.270330
      22A     -0.262508    23A     -0.238836    24A     -0.237342
      25A     -0.198964    26A     -0.173869    27A     -0.173008
      28A     -0.164725    29A     -0.120751

  @DF-RKS Final Energy: -1378.43833593637100

   => Energetics <=

    Nuclear Repulsion Energy =            367.5984413193592673
    One-Electron Energy =               -2632.7186241187159794
    Two-Electron Energy =                 972.7857092341689622
    DFT Exchange-Correlation Energy =     -86.1038623711831406
    Empirical Dispersion Energy =           0.0000000000000000
    VV10 Nonlocal Energy =                  0.0000000000000000
    Total Energy =                      -1378.4383359363710042

  Dipole Moment: [D]
     X:     0.0214      Y:    -1.4252      Z:     0.3137     Total:     1.4594

    Molecular point group: c1
  Basis Set: STO-3G
    Blend: STO-3G
  Basis Set: (STO-3G AUX)
    Blend: DEF2-SVP-JKFIT

  -Total Gradient:
     Atom            X                  Y                   Z
    ------   -----------------  -----------------  -----------------
       1       -0.000000200284     0.000013571038    -0.000002963528
       2       -0.000000342461     0.000013588534    -0.000002898706
       3       -0.000000064271     0.000013542221    -0.000003088743
       4       -0.000000189962     0.000014039976    -0.000003060037
       5       -0.000000236681     0.000014024058    -0.000003124021

  **** Optimization is complete! (in 10 steps) ****
    Final optimized geometry and variables:
    Molecular point group: c1

    Geometry (in Angstrom), charge = 0, multiplicity = 1:

    CR          -0.000972182205     0.064700033768    -0.014240309828
    O            0.989594031906     0.774837037831    -0.895003042486
    O           -1.017018048833     1.050248890292     0.493305904176
    F           -0.736159781941    -1.095819217354    -0.846631065574
    F            0.761906179729    -0.617621950405     1.223755409667

*** Psi4 exiting successfully. Buy a developer a beer!
