                               Psi4 1.3.2 release

  ==> Input File <==

--------------------------------------------------------------------------
memory 8 gb

molecule {
symmetry c1
Cr        0.48028725377749    0.32716919378518    0.12128381663197
O         1.51332165941332    1.03448648135578   -0.78955553051410
O        -0.57831537187616    1.32157128739802    0.65757817076212
F        -0.29602430869141   -0.85637252313759   -0.76598418135575
F         1.28459076737678   -0.35182443940140    1.41848772447575
}

set basis STO-6G
set geom_maxiter 250

# Use a (75,302) quadrature grid
set dft_radial_points 75
set dft_spherical_points 302

# Very tight geometry optimization
set g_convergence gau_verytight
# Increase allowed number of geometry optimization steps
set geom_maxiter 250

# Use the Hueckel type guess
set guess huckel

my_dft = {
    "name": "my r2scan",
    "x_functionals": {"mgga_x_r2scan": {}},
    "c_functionals": {"mgga_c_r2scan": {}}
}
optimize('scf', dft_functional=my_dft)
--------------------------------------------------------------------------

    Molecular point group: c1
  Charge       = 0
  Multiplicity = 1
  Basis Set: STO-6G
    Blend: STO-6G
  Basis Set: (STO-6G AUX)
    Blend: DEF2-QZVPP-JKFIT
  @DF-RKS Final Energy: -1388.94426481237292
    Total Energy =                      -1388.9442648123729214
    Molecular point group: c1
  Basis Set: STO-6G
    Blend: STO-6G
  Basis Set: (STO-6G AUX)
    Blend: DEF2-QZVPP-JKFIT
  Basis Set: STO-6G
    Blend: STO-6G
  Basis Set: (STO-6G AUX)
    Blend: DEF2-QZVPP-JKFIT
  @DF-RKS Final Energy: -1388.95388203743232
    Total Energy =                      -1388.9538820374323222
  Basis Set: STO-6G
    Blend: STO-6G
  Basis Set: (STO-6G AUX)
    Blend: DEF2-QZVPP-JKFIT
  Basis Set: STO-6G
    Blend: STO-6G
  @DF-RKS Final Energy: -1388.96120006156229
    Total Energy =                      -1388.9612000615622946
  @DF-RKS Final Energy: -1388.96163874800823
    Total Energy =                      -1388.9616387480082267
  @DF-RKS Final Energy: -1388.96166752440922
    Total Energy =                      -1388.9616675244092221
  @DF-RKS Final Energy: -1388.96168952134531
    Total Energy =                      -1388.9616895213453063
  @DF-RKS Final Energy: -1388.96168626511144
    Total Energy =                      -1388.9616862651114388
  @DF-RKS Final Energy: -1388.96168374272452
    Total Energy =                      -1388.9616837427245173
  Basis Set: (STO-6G AUX)
    Blend: DEF2-QZVPP-JKFIT
  Basis Set: STO-6G
    Blend: STO-6G
  Basis Set: (STO-6G AUX)
    Blend: DEF2-QZVPP-JKFIT
  @DF-RKS Final Energy: -1388.96168303117838
    Total Energy =                      -1388.9616830311783815
  Basis Set: STO-6G
    Blend: STO-6G
  Basis Set: (STO-6G AUX)
    Blend: DEF2-QZVPP-JKFIT
  Charge       = 0
  Multiplicity = 1
  Basis Set: STO-6G
    Blend: STO-6G
  Basis Set: (STO-6G AUX)
    Blend: DEF2-QZVPP-JKFIT

    Orbital Energies [Eh]
    ---------------------

    Doubly Occupied:

       1A   -215.704131     2A    -24.530064     3A    -24.529963
       4A    -24.199212     5A    -21.206508     6A    -21.205408
       7A    -21.204048     8A    -18.911917     9A    -18.911788
      10A     -2.891982    11A     -1.973737    12A     -1.971850
      13A     -1.968462    14A     -1.074013    15A     -1.069742
      16A     -0.826936    17A     -0.816509    18A     -0.338131
      19A     -0.327491    20A     -0.320065    21A     -0.297752
      22A     -0.289324    23A     -0.262812    24A     -0.261312
      25A     -0.226267    26A     -0.197534    27A     -0.197374
      28A     -0.191205    29A     -0.146532

  @DF-RKS Final Energy: -1388.96168294279960

   => Energetics <=

    Nuclear Repulsion Energy =            368.1765348062352246
    One-Electron Energy =               -2646.6519687724180585
    Two-Electron Energy =                 976.7362247210028272
    DFT Exchange-Correlation Energy =     -87.2224736976196766
    Empirical Dispersion Energy =           0.0000000000000000
    VV10 Nonlocal Energy =                  0.0000000000000000
    Total Energy =                      -1388.9616829427995981

  Dipole Moment: [D]
     X:     0.0188      Y:    -1.2485      Z:     0.2748     Total:     1.2786

    Molecular point group: c1
  Basis Set: STO-6G
    Blend: STO-6G
  Basis Set: (STO-6G AUX)
    Blend: DEF2-QZVPP-JKFIT

  -Total Gradient:
     Atom            X                  Y                   Z
    ------   -----------------  -----------------  -----------------
       1        0.000033718718    -0.002243672665     0.000493867127
       2        0.000033738258    -0.002243532000     0.000493766959
       3        0.000033689927    -0.002243535290     0.000493800381
       4        0.000033710906    -0.002243532330     0.000493795822
       5        0.000033704955    -0.002243533076     0.000493785911

  **** Optimization is complete! (in 10 steps) ****
    Final optimized geometry and variables:
    Molecular point group: c1

    Geometry (in Angstrom), charge = 0, multiplicity = 1:

    CR          -0.001104026756     0.073474632834    -0.016171578871
    O            0.992151018876     0.773054767071    -0.896441538817
    O           -1.019531946367     1.049162620647     0.495375770638
    F           -0.726697127520    -1.103637474824    -0.831403105847
    F            0.752767703125    -0.631377877622     1.213275869038

*** Psi4 exiting successfully. Buy a developer a beer!
