                               Psi4 1.3.2 release

  ==> Input File <==

--------------------------------------------------------------------------
memory 8 gb

molecule {
symmetry c1
Cr        0.48028725377749    0.32716919378518    0.12128381663197
O         1.51332165941332    1.03448648135578   -0.78955553051410
O        -0.57831537187616    1.32157128739802    0.65757817076212
F        -0.29602430869141   -0.85637252313759   -0.76598418135575
F         1.28459076737678   -0.35182443940140    1.41848772447575
}

set basis def2-TZVP
set geom_maxiter 250

# Use a (75,302) quadrature grid
set dft_radial_points 75
set dft_spherical_points 302

# Very tight geometry optimization
set g_convergence gau_verytight
# Increase allowed number of geometry optimization steps
set geom_maxiter 250

# Use the Hueckel type guess
set guess huckel

my_dft = {
    "name": "my lda",
    "x_functionals": {"lda_x": {}},
    "c_functionals": {"lda_c_pw": {}}
}
optimize('scf', dft_functional=my_dft)
--------------------------------------------------------------------------

    Molecular point group: c1
  Charge       = 0
  Multiplicity = 1
  Basis Set: DEF2-TZVP
    Blend: DEF2-TZVP
  Basis Set: (DEF2-TZVP AUX)
    Blend: DEF2-TZVP-JKFIT
  @DF-RKS Final Energy: -1390.37837304860045
    Total Energy =                      -1390.3783730486004515
    Molecular point group: c1
  Basis Set: DEF2-TZVP
    Blend: DEF2-TZVP
  Basis Set: (DEF2-TZVP AUX)
    Blend: DEF2-TZVP-JKFIT
  Basis Set: DEF2-TZVP
    Blend: DEF2-TZVP
  Basis Set: (DEF2-TZVP AUX)
    Blend: DEF2-TZVP-JKFIT
  @DF-RKS Final Energy: -1390.37920376181091
    Total Energy =                      -1390.3792037618109134
  Basis Set: DEF2-TZVP
    Blend: DEF2-TZVP
  Basis Set: (DEF2-TZVP AUX)
    Blend: DEF2-TZVP-JKFIT
  Basis Set: DEF2-TZVP
    Blend: DEF2-TZVP
  @DF-RKS Final Energy: -1390.37941015988190
    Total Energy =                      -1390.3794101598818997
  @DF-RKS Final Energy: -1390.37956288395389
    Total Energy =                      -1390.3795628839538949
  @DF-RKS Final Energy: -1390.37956517019938
    Total Energy =                      -1390.3795651701993847
  @DF-RKS Final Energy: -1390.37956596390973
    Total Energy =                      -1390.3795659639097266
  @DF-RKS Final Energy: -1390.37956602007171
    Total Energy =                      -1390.3795660200717066
  @DF-RKS Final Energy: -1390.37956602275244
    Total Energy =                      -1390.3795660227524422
  @DF-RKS Final Energy: -1390.37956601248561
    Total Energy =                      -1390.3795660124856113
  @DF-RKS Final Energy: -1390.37956599834615
    Total Energy =                      -1390.3795659983461519
  Basis Set: (DEF2-TZVP AUX)
    Blend: DEF2-TZVP-JKFIT
  Basis Set: DEF2-TZVP
    Blend: DEF2-TZVP
  Basis Set: (DEF2-TZVP AUX)
    Blend: DEF2-TZVP-JKFIT
  @DF-RKS Final Energy: -1390.37956599035715
    Total Energy =                      -1390.3795659903571504
  Basis Set: DEF2-TZVP
    Blend: DEF2-TZVP
  Basis Set: (DEF2-TZVP AUX)
    Blend: DEF2-TZVP-JKFIT
  Charge       = 0
  Multiplicity = 1
  Basis Set: DEF2-TZVP
    Blend: DEF2-TZVP
  Basis Set: (DEF2-TZVP AUX)
    Blend: DEF2-TZVP-JKFIT

    Orbital Energies [Eh]
    ---------------------

    Doubly Occupied:

       1A   -214.118897     2A    -24.414360     3A    -24.148195
       4A    -24.148188     5A    -20.826154     6A    -20.825822
       7A    -20.821755     8A    -18.708034     9A    -18.708032
      10A     -2.894559    11A     -1.903284    12A     -1.902714
      13A     -1.897636    14A     -1.102193    15A     -1.096878
      16A     -0.901618    17A     -0.890893    18A     -0.489573
      19A     -0.483186    20A     -0.467363    21A     -0.466054
      22A     -0.463282    23A     -0.429162    24A     -0.421087
      25A     -0.403942    26A     -0.385954    27A     -0.374199
      28A     -0.373214    29A     -0.331172

  @DF-RKS Final Energy: -1390.37956598964001

   => Energetics <=

    Nuclear Repulsion Energy =            352.4936155647697547
    One-Electron Energy =               -2621.3676068166250843
    Two-Electron Energy =                 960.3780283601764722
    DFT Exchange-Correlation Energy =     -81.8836030979609006
    Empirical Dispersion Energy =           0.0000000000000000
    VV10 Nonlocal Energy =                  0.0000000000000000
    Total Energy =                      -1390.3795659896400139

  Dipole Moment: [D]
     X:     0.0030      Y:    -0.1969      Z:     0.0433     Total:     0.2016

    Molecular point group: c1
  Basis Set: DEF2-TZVP
    Blend: DEF2-TZVP
  Basis Set: (DEF2-TZVP AUX)
    Blend: DEF2-TZVP-JKFIT

  -Total Gradient:
     Atom            X                  Y                   Z
    ------   -----------------  -----------------  -----------------
       1        0.000000193146    -0.000013178424     0.000002899651
       2        0.000000259969    -0.000013146685     0.000002851654
       3        0.000000104298    -0.000013057809     0.000002943710
       4        0.000000287500    -0.000012891175     0.000002935414
       5        0.000000134304    -0.000012936304     0.000002722605

  **** Optimization is complete! (in 12 steps) ****
    Final optimized geometry and variables:
    Molecular point group: c1

    Geometry (in Angstrom), charge = 0, multiplicity = 1:

    CR          -0.000929168584     0.061830347191    -0.013608650173
    O            1.013103132477     0.807472616965    -0.919551284163
    O           -1.041607173444     1.089486399444     0.502035165042
    F           -0.786895326332    -1.138473376582    -0.911501049903
    F            0.813433408711    -0.627632792993     1.300216606336

*** Psi4 exiting successfully. Buy a developer a beer!
