                               Psi4 1.3.2 release

  ==> Input File <==

--------------------------------------------------------------------------
memory 8 gb

molecule {
symmetry c1
Cr        0.48028725377749    0.32716919378518    0.12128381663197
O         1.51332165941332    1.03448648135578   -0.78955553051410
O        -0.57831537187616    1.32157128739802    0.65757817076212
F        -0.29602430869141   -0.85637252313759   -0.76598418135575
F         1.28459076737678   -0.35182443940140    1.41848772447575
}

set basis STO-6G
set geom_maxiter 250

# Use a (75,302) quadrature grid
set dft_radial_points 75
set dft_spherical_points 302

# Very tight geometry optimization
set g_convergence gau_verytight
# Increase allowed number of geometry optimization steps
set geom_maxiter 250

# Use the Hueckel type guess
set guess huckel

my_dft = {
    "name": "my lda",
    "x_functionals": {"lda_x": {}},
    "c_functionals": {"lda_c_pw": {}}
}
optimize('scf', dft_functional=my_dft)
--------------------------------------------------------------------------

    Molecular point group: c1
  Charge       = 0
  Multiplicity = 1
  Basis Set: STO-6G
    Blend: STO-6G
  Basis Set: (STO-6G AUX)
    Blend: DEF2-QZVPP-JKFIT
  @DF-RKS Final Energy: -1384.29197296403777
    Total Energy =                      -1384.2919729640377682
    Molecular point group: c1
  Basis Set: STO-6G
    Blend: STO-6G
  Basis Set: (STO-6G AUX)
    Blend: DEF2-QZVPP-JKFIT
  Basis Set: STO-6G
    Blend: STO-6G
  Basis Set: (STO-6G AUX)
    Blend: DEF2-QZVPP-JKFIT
  @DF-RKS Final Energy: -1384.30480274389652
    Total Energy =                      -1384.3048027438965164
  Basis Set: STO-6G
    Blend: STO-6G
  Basis Set: (STO-6G AUX)
    Blend: DEF2-QZVPP-JKFIT
  Basis Set: STO-6G
    Blend: STO-6G
  @DF-RKS Final Energy: -1384.31416833297430
    Total Energy =                      -1384.3141683329743046
  @DF-RKS Final Energy: -1384.31489576698254
    Total Energy =                      -1384.3148957669825450
  @DF-RKS Final Energy: -1384.31494541520760
    Total Energy =                      -1384.3149454152076032
  @DF-RKS Final Energy: -1384.31495200302038
    Total Energy =                      -1384.3149520030203803
  @DF-RKS Final Energy: -1384.31495367418802
    Total Energy =                      -1384.3149536741880183
  @DF-RKS Final Energy: -1384.31495370055632
    Total Energy =                      -1384.3149537005563161
  Basis Set: (STO-6G AUX)
    Blend: DEF2-QZVPP-JKFIT
  Basis Set: STO-6G
    Blend: STO-6G
  Basis Set: (STO-6G AUX)
    Blend: DEF2-QZVPP-JKFIT
  @DF-RKS Final Energy: -1384.31495370067137
    Total Energy =                      -1384.3149537006713672
  Basis Set: STO-6G
    Blend: STO-6G
  Basis Set: (STO-6G AUX)
    Blend: DEF2-QZVPP-JKFIT
  Charge       = 0
  Multiplicity = 1
  Basis Set: STO-6G
    Blend: STO-6G
  Basis Set: (STO-6G AUX)
    Blend: DEF2-QZVPP-JKFIT

    Orbital Energies [Eh]
    ---------------------

    Doubly Occupied:

       1A   -214.349841     2A    -24.152806     3A    -24.152679
       4A    -23.764691     5A    -20.953932     6A    -20.953184
       7A    -20.951485     8A    -18.565449     9A    -18.565239
      10A     -2.753613    11A     -1.895039    12A     -1.891448
      13A     -1.890620    14A     -1.007919    15A     -1.002598
      16A     -0.764495    17A     -0.753678    18A     -0.327035
      19A     -0.318390    20A     -0.310136    21A     -0.287459
      22A     -0.279578    23A     -0.251721    24A     -0.249753
      25A     -0.208312    26A     -0.184992    27A     -0.179599
      28A     -0.176371    29A     -0.131131

  @DF-RKS Final Energy: -1384.31495369834533

   => Energetics <=

    Nuclear Repulsion Energy =            370.7603745560186894
    One-Electron Energy =               -2651.6037939762031783
    Two-Electron Energy =                 979.0207356746341247
    DFT Exchange-Correlation Energy =     -82.4922699527950130
    Empirical Dispersion Energy =           0.0000000000000000
    VV10 Nonlocal Energy =                  0.0000000000000000
    Total Energy =                      -1384.3149536983453345

  Dipole Moment: [D]
     X:     0.0214      Y:    -1.4270      Z:     0.3141     Total:     1.4613

    Molecular point group: c1
  Basis Set: STO-6G
    Blend: STO-6G
  Basis Set: (STO-6G AUX)
    Blend: DEF2-QZVPP-JKFIT

  -Total Gradient:
     Atom            X                  Y                   Z
    ------   -----------------  -----------------  -----------------
       1        0.000000461751    -0.000033832911     0.000007447545
       2        0.000000328382    -0.000033526524     0.000007512875
       3        0.000000709841    -0.000033596214     0.000007250880
       4        0.000000550649    -0.000033208736     0.000007377426
       5        0.000000465011    -0.000033247921     0.000007258837

  **** Optimization is complete! (in 10 steps) ****
    Final optimized geometry and variables:
    Molecular point group: c1

    Geometry (in Angstrom), charge = 0, multiplicity = 1:

    CR          -0.000968443343     0.064449549977    -0.014185174553
    O            0.984303988455     0.768899496895    -0.889803913486
    O           -1.011527311240     1.042831696176     0.491046142893
    F           -0.726615933402    -1.086780000493    -0.834629966291
    F            0.752183143285    -0.614732896249     1.209128895534

*** Psi4 exiting successfully. Buy a developer a beer!
