                               Psi4 1.3.2 release

  ==> Input File <==

--------------------------------------------------------------------------
memory 8 gb

molecule {
symmetry c1
Cr        0.48028725377749    0.32716919378518    0.12128381663197
O         1.51332165941332    1.03448648135578   -0.78955553051410
O        -0.57831537187616    1.32157128739802    0.65757817076212
F        -0.29602430869141   -0.85637252313759   -0.76598418135575
F         1.28459076737678   -0.35182443940140    1.41848772447575
}

set basis def2-QZVP
set geom_maxiter 250

# Use a (75,302) quadrature grid
set dft_radial_points 75
set dft_spherical_points 302

# Very tight geometry optimization
set g_convergence gau_verytight
# Increase allowed number of geometry optimization steps
set geom_maxiter 250

# Use the Hueckel type guess
set guess huckel

my_dft = {
    "name": "my pbe",
    "x_functionals": {"gga_x_pbe": {}},
    "c_functionals": {"gga_c_pbe": {}}
}
optimize('scf', dft_functional=my_dft)
--------------------------------------------------------------------------

    Molecular point group: c1
  Charge       = 0
  Multiplicity = 1
  Basis Set: DEF2-QZVP
    Blend: DEF2-QZVP
  Basis Set: (DEF2-QZVP AUX)
    Blend: DEF2-QZVP-JKFIT
  @DF-RKS Final Energy: -1394.41097406966151
    Total Energy =                      -1394.4109740696615063
    Molecular point group: c1
  Basis Set: DEF2-QZVP
    Blend: DEF2-QZVP
  Basis Set: (DEF2-QZVP AUX)
    Blend: DEF2-QZVP-JKFIT
  Basis Set: DEF2-QZVP
    Blend: DEF2-QZVP
  Basis Set: (DEF2-QZVP AUX)
    Blend: DEF2-QZVP-JKFIT
  @DF-RKS Final Energy: -1394.41371946515756
    Total Energy =                      -1394.4137194651575555
  Basis Set: DEF2-QZVP
    Blend: DEF2-QZVP
  Basis Set: (DEF2-QZVP AUX)
    Blend: DEF2-QZVP-JKFIT
  Basis Set: DEF2-QZVP
    Blend: DEF2-QZVP
  @DF-RKS Final Energy: -1394.41584480979486
    Total Energy =                      -1394.4158448097948622
  @DF-RKS Final Energy: -1394.41621677829107
    Total Energy =                      -1394.4162167782910728
  @DF-RKS Final Energy: -1394.41623886008142
    Total Energy =                      -1394.4162388600814211
  @DF-RKS Final Energy: -1394.41624175381639
    Total Energy =                      -1394.4162417538163936
  @DF-RKS Final Energy: -1394.41624310038196
    Total Energy =                      -1394.4162431003819620
  @DF-RKS Final Energy: -1394.41624335830397
    Total Energy =                      -1394.4162433583039729
  @DF-RKS Final Energy: -1394.41624356869033
    Total Energy =                      -1394.4162435686903336
  Basis Set: (DEF2-QZVP AUX)
    Blend: DEF2-QZVP-JKFIT
  Basis Set: DEF2-QZVP
    Blend: DEF2-QZVP
  Basis Set: (DEF2-QZVP AUX)
    Blend: DEF2-QZVP-JKFIT
  @DF-RKS Final Energy: -1394.41624359754314
    Total Energy =                      -1394.4162435975431436
  Basis Set: DEF2-QZVP
    Blend: DEF2-QZVP
  Basis Set: (DEF2-QZVP AUX)
    Blend: DEF2-QZVP-JKFIT
  Charge       = 0
  Multiplicity = 1
  Basis Set: DEF2-QZVP
    Blend: DEF2-QZVP
  Basis Set: (DEF2-QZVP AUX)
    Blend: DEF2-QZVP-JKFIT

    Orbital Energies [Eh]
    ---------------------

    Doubly Occupied:

       1A   -214.678576     2A    -24.477972     3A    -24.299465
       4A    -24.299465     5A    -20.845035     6A    -20.844864
       7A    -20.841002     8A    -18.845644     9A    -18.845644
      10A     -2.909467    11A     -1.903152    12A     -1.902105
      13A     -1.898480    14A     -1.100680    15A     -1.096138
      16A     -0.903698    17A     -0.893671    18A     -0.471288
      19A     -0.465634    20A     -0.447677    21A     -0.446965
      22A     -0.446524    23A     -0.416161    24A     -0.405976
      25A     -0.392628    26A     -0.376838    27A     -0.362893
      28A     -0.362230    29A     -0.322636

  @DF-RKS Final Energy: -1394.41624359845241

   => Energetics <=

    Nuclear Repulsion Energy =            347.0379449466159372
    One-Electron Energy =               -2611.0928473290987313
    Two-Electron Energy =                 955.5721504415547543
    DFT Exchange-Correlation Energy =     -85.9334916575241010
    Empirical Dispersion Energy =           0.0000000000000000
    VV10 Nonlocal Energy =                  0.0000000000000000
    Total Energy =                      -1394.4162435984524109

  Dipole Moment: [D]
     X:     0.0022      Y:    -0.1481      Z:     0.0326     Total:     0.1517

    Molecular point group: c1
  Basis Set: DEF2-QZVP
    Blend: DEF2-QZVP
  Basis Set: (DEF2-QZVP AUX)
    Blend: DEF2-QZVP-JKFIT

  -Total Gradient:
     Atom            X                  Y                   Z
    ------   -----------------  -----------------  -----------------
       1        0.000000463467    -0.000022150506     0.000004902233
       2        0.000000225839    -0.000022158729     0.000004966027
       3        0.000000348296    -0.000022059541     0.000004855104
       4        0.000000349086    -0.000022062146     0.000004852144
       5        0.000000271554    -0.000021999892     0.000004727971

  **** Optimization is complete! (in 11 steps) ****
    Final optimized geometry and variables:
    Molecular point group: c1

    Geometry (in Angstrom), charge = 0, multiplicity = 1:

    CR          -0.000966105645     0.064295320948    -0.014151240806
    O            1.026035476387     0.819856805732    -0.931769028428
    O           -1.054965766041     1.105478710726     0.508007345163
    F           -0.801180842019    -1.158421678704    -0.928191145383
    F            0.828178770467    -0.638313995639     1.323648305111

*** Psi4 exiting successfully. Buy a developer a beer!
