   * xtb version 6.4.1-1.fc34.fc34 compiled by Fedora project on Fri Jun 11 20:36:47 UTC 2021
          program call               : xtb cro2f2.xyz --opt --gfn 0
          number of atoms            :                     5
          number of electrons        :                    32
          charge                     :                     0
          spin                       :                   0.0

   ID    Z sym.   atoms
    1   24 Cr     1
    2    8 O      2, 3
    3    9 F      4, 5

 * total energy  :   -16.7388220 Eh     change        0.0000000E+00 Eh
 * total energy  :   -16.7427459 Eh     change       -0.3923833E-02 Eh
 * total energy  :   -16.7448306 Eh     change       -0.2084729E-02 Eh
 * total energy  :   -16.7453827 Eh     change       -0.5521317E-03 Eh
 * total energy  :   -16.7462492 Eh     change       -0.8664350E-03 Eh
 * total energy  :   -16.7470346 Eh     change       -0.7854117E-03 Eh
 * total energy  :   -16.7480220 Eh     change       -0.9874284E-03 Eh
 * total energy  :   -16.7484442 Eh     change       -0.4222453E-03 Eh
 * total energy  :   -16.7487855 Eh     change       -0.3412240E-03 Eh
 * total energy  :   -16.7491662 Eh     change       -0.3806984E-03 Eh
 * total energy  :   -16.7492306 Eh     change       -0.6440592E-04 Eh
 * total energy  :   -16.7492445 Eh     change       -0.1392730E-04 Eh
 * total energy  :   -16.7492488 Eh     change       -0.4272133E-05 Eh
 * total energy  :   -16.7492495 Eh     change       -0.7443759E-06 Eh
   *** GEOMETRY OPTIMIZATION CONVERGED AFTER 14 ITERATIONS ***

 final structure:
================
5
 xtb: 6.4.1-1.fc34.fc34
Cr        0.48401600768119    0.07911502987545    0.17587910572300
O         1.46725383137659    0.93066850863735   -0.73224404352365
O        -0.52892955738036    1.20464948250874    0.64884959209441
F        -0.44728527838678   -0.66913471913026   -1.02175281354612
F         1.42880499670938   -0.07026830189129    1.57107815925236

         :: total energy             -16.749249515488 Eh    ::
         :: gradient norm              0.000380551296 Eh/a0 ::
         :: HOMO-LUMO gap              4.728556145836 eV    ::
         :: repulsion energy           0.087380472736 Eh    ::
         :: -> Gsolv                   0.000000000000 Eh    ::

    * Orbital Energies and Occupations

         #    Occupation            Energy/Eh            Energy/eV
      -------------------------------------------------------------
         1        2.0000           -0.8123126             -22.1042
       ...           ...                  ...                  ...
         4        2.0000           -0.6535407             -17.7837
         5        2.0000           -0.4744466             -12.9104
         6        2.0000           -0.4700795             -12.7915
         7        2.0000           -0.4646484             -12.6437
         8        2.0000           -0.4518877             -12.2965
         9        2.0000           -0.4491581             -12.2222
        10        2.0000           -0.4487352             -12.2107
        11        2.0000           -0.4432091             -12.0603
        12        2.0000           -0.4420997             -12.0301
        13        2.0000           -0.4413027             -12.0085
        14        2.0000           -0.4348398             -11.8326
        15        2.0000           -0.4335966             -11.7988
        16        2.0000           -0.4266927             -11.6109 (HOMO)
        17                         -0.2529215              -6.8823 (LUMO)
        18                         -0.2520779              -6.8594
        19                         -0.2371604              -6.4535
        20                         -0.1837785              -5.0009
        21                         -0.1337461              -3.6394
        22                          0.4744400              12.9102
        23                          0.6067427              16.5103
        24                          0.6620568              18.0155
        25                          1.0064932              27.3881
      -------------------------------------------------------------
                  HL-Gap            0.1737712 Eh            4.7286 eV

     #   Z          covCN         q      C6AA      α(0)
     1  24 Cr       2.836     1.884   213.659    34.846
     2   8 O        0.741    -0.630    26.833     6.949
     3   8 O        0.741    -0.630    26.833     6.949
     4   9 F        0.677    -0.312    12.524     4.079
     5   9 F        0.677    -0.312    12.524     4.079

Wiberg/Mayer (AO) data.
largest (>0.10) Wiberg bond orders for each atom

     #   Z sym  total        # sym  WBO       # sym  WBO       # sym  WBO
 ---------------------------------------------------------------------------
     1  24 Cr   4.942 --     3 O    1.614     2 O    1.614     4 F    0.857
                             5 F    0.857
     2   8 O    1.776 --     1 Cr   1.614
     3   8 O    1.776 --     1 Cr   1.614
     4   9 F    0.949 --     1 Cr   0.857
     5   9 F    0.949 --     1 Cr   0.857
 ---------------------------------------------------------------------------

normal termination of xtb

           -------------------------------------------------
          | TOTAL ENERGY              -16.749249515488 Eh   |
          | GRADIENT NORM               0.000380551296 Eh/α |
          | HOMO-LUMO GAP               4.728556145836 eV   |
           -------------------------------------------------

 * finished run on 2021/06/30 at 12:52:07.808
