                               Psi4 1.3.2 release

  ==> Input File <==

--------------------------------------------------------------------------
memory 8 gb

molecule {
symmetry c1
Cr        0.48028725377749    0.32716919378518    0.12128381663197
O         1.51332165941332    1.03448648135578   -0.78955553051410
O        -0.57831537187616    1.32157128739802    0.65757817076212
F        -0.29602430869141   -0.85637252313759   -0.76598418135575
F         1.28459076737678   -0.35182443940140    1.41848772447575
}

set basis STO-6G
set geom_maxiter 250

# Use a (75,302) quadrature grid
set dft_radial_points 75
set dft_spherical_points 302

# Very tight geometry optimization
set g_convergence gau_verytight
# Increase allowed number of geometry optimization steps
set geom_maxiter 250

# Use the Hueckel type guess
set guess huckel

my_dft = {
    "name": "my pbe",
    "x_functionals": {"gga_x_pbe": {}},
    "c_functionals": {"gga_c_pbe": {}}
}
optimize('scf', dft_functional=my_dft)
--------------------------------------------------------------------------

    Molecular point group: c1
  Charge       = 0
  Multiplicity = 1
  Basis Set: STO-6G
    Blend: STO-6G
  Basis Set: (STO-6G AUX)
    Blend: DEF2-QZVPP-JKFIT
  @DF-RKS Final Energy: -1388.45746563969806
    Total Energy =                      -1388.4574656396980572
    Molecular point group: c1
  Basis Set: STO-6G
    Blend: STO-6G
  Basis Set: (STO-6G AUX)
    Blend: DEF2-QZVPP-JKFIT
  Basis Set: STO-6G
    Blend: STO-6G
  Basis Set: (STO-6G AUX)
    Blend: DEF2-QZVPP-JKFIT
  @DF-RKS Final Energy: -1388.46434307959771
    Total Energy =                      -1388.4643430795977110
  Basis Set: STO-6G
    Blend: STO-6G
  Basis Set: (STO-6G AUX)
    Blend: DEF2-QZVPP-JKFIT
  Basis Set: STO-6G
    Blend: STO-6G
  @DF-RKS Final Energy: -1388.46951951093843
    Total Energy =                      -1388.4695195109384258
  @DF-RKS Final Energy: -1388.46977400672881
    Total Energy =                      -1388.4697740067288123
  @DF-RKS Final Energy: -1388.46978799315480
    Total Energy =                      -1388.4697879931547959
  @DF-RKS Final Energy: -1388.46979194493770
    Total Energy =                      -1388.4697919449376968
  @DF-RKS Final Energy: -1388.46979304910701
    Total Energy =                      -1388.4697930491070110
  @DF-RKS Final Energy: -1388.46979312058374
    Total Energy =                      -1388.4697931205837449
  Basis Set: (STO-6G AUX)
    Blend: DEF2-QZVPP-JKFIT
  Basis Set: STO-6G
    Blend: STO-6G
  Basis Set: (STO-6G AUX)
    Blend: DEF2-QZVPP-JKFIT
  @DF-RKS Final Energy: -1388.46979312508961
    Total Energy =                      -1388.4697931250896090
  Basis Set: STO-6G
    Blend: STO-6G
  Basis Set: (STO-6G AUX)
    Blend: DEF2-QZVPP-JKFIT
  Charge       = 0
  Multiplicity = 1
  Basis Set: STO-6G
    Blend: STO-6G
  Basis Set: (STO-6G AUX)
    Blend: DEF2-QZVPP-JKFIT

    Orbital Energies [Eh]
    ---------------------

    Doubly Occupied:

       1A   -214.898698     2A    -24.318632     3A    -24.318542
       4A    -23.867313     5A    -20.985457     6A    -20.984651
       7A    -20.982986     8A    -18.717243     9A    -18.717094
      10A     -2.773778    11A     -1.898912    12A     -1.895422
      13A     -1.894871    14A     -1.008962    15A     -1.004247
      16A     -0.770141    17A     -0.760103    18A     -0.313139
      19A     -0.304210    20A     -0.295015    21A     -0.273108
      22A     -0.265156    23A     -0.241233    24A     -0.240306
      25A     -0.203742    26A     -0.177522    27A     -0.177205
      28A     -0.169752    29A     -0.126886

  @DF-RKS Final Energy: -1388.46979312292001

   => Energetics <=

    Nuclear Repulsion Energy =            366.6112474921085322
    One-Electron Energy =               -2643.6412192347947894
    Two-Electron Energy =                 975.2281185274130166
    DFT Exchange-Correlation Energy =     -86.6679399076470247
    Empirical Dispersion Energy =           0.0000000000000000
    VV10 Nonlocal Energy =                  0.0000000000000000
    Total Energy =                      -1388.4697931229200094

  Dipole Moment: [D]
     X:     0.0204      Y:    -1.3554      Z:     0.2983     Total:     1.3880

    Molecular point group: c1
  Basis Set: STO-6G
    Blend: STO-6G
  Basis Set: (STO-6G AUX)
    Blend: DEF2-QZVPP-JKFIT

  -Total Gradient:
     Atom            X                  Y                   Z
    ------   -----------------  -----------------  -----------------
       1        0.000000296434    -0.000022993214     0.000005086162
       2        0.000000292637    -0.000023045227     0.000005113015
       3        0.000000441806    -0.000023085696     0.000005014705
       4        0.000000369074    -0.000022966775     0.000005083709
       5        0.000000328736    -0.000022979366     0.000005028900

  **** Optimization is complete! (in 10 steps) ****
    Final optimized geometry and variables:
    Molecular point group: c1

    Geometry (in Angstrom), charge = 0, multiplicity = 1:

    CR          -0.001003715759     0.066797325967    -0.014701939350
    O            0.992883388017     0.777013082715    -0.897885666547
    O           -1.020386502138     1.053338765961     0.495029592768
    F           -0.736409667385    -1.101007043835    -0.845963112083
    F            0.762308868627    -0.622601418857     1.225325241348

*** Psi4 exiting successfully. Buy a developer a beer!
