                               Psi4 1.3.2 release

  ==> Input File <==

--------------------------------------------------------------------------
memory 8 gb

molecule {
symmetry c1
Cr        0.48028725377749    0.32716919378518    0.12128381663197
O         1.51332165941332    1.03448648135578   -0.78955553051410
O        -0.57831537187616    1.32157128739802    0.65757817076212
F        -0.29602430869141   -0.85637252313759   -0.76598418135575
F         1.28459076737678   -0.35182443940140    1.41848772447575
}

set basis def2-QZVP
set geom_maxiter 250

# Use a (75,302) quadrature grid
set dft_radial_points 75
set dft_spherical_points 302

# Very tight geometry optimization
set g_convergence gau_verytight
# Increase allowed number of geometry optimization steps
set geom_maxiter 250

# Use the Hueckel type guess
set guess huckel

my_dft = {
    "name": "my lda",
    "x_functionals": {"lda_x": {}},
    "c_functionals": {"lda_c_pw": {}}
}
optimize('scf', dft_functional=my_dft)
--------------------------------------------------------------------------

    Molecular point group: c1
  Charge       = 0
  Multiplicity = 1
  Basis Set: DEF2-QZVP
    Blend: DEF2-QZVP
  Basis Set: (DEF2-QZVP AUX)
    Blend: DEF2-QZVP-JKFIT
  @DF-RKS Final Energy: -1390.43786320410982
    Total Energy =                      -1390.4378632041098172
    Molecular point group: c1
  Basis Set: DEF2-QZVP
    Blend: DEF2-QZVP
  Basis Set: (DEF2-QZVP AUX)
    Blend: DEF2-QZVP-JKFIT
  Basis Set: DEF2-QZVP
    Blend: DEF2-QZVP
  Basis Set: (DEF2-QZVP AUX)
    Blend: DEF2-QZVP-JKFIT
  @DF-RKS Final Energy: -1390.43883106820681
    Total Energy =                      -1390.4388310682068095
  Basis Set: DEF2-QZVP
    Blend: DEF2-QZVP
  Basis Set: (DEF2-QZVP AUX)
    Blend: DEF2-QZVP-JKFIT
  Basis Set: DEF2-QZVP
    Blend: DEF2-QZVP
  @DF-RKS Final Energy: -1390.43910631048766
    Total Energy =                      -1390.4391063104876594
  @DF-RKS Final Energy: -1390.43929564636437
    Total Energy =                      -1390.4392956463643714
  @DF-RKS Final Energy: -1390.43929802203775
    Total Energy =                      -1390.4392980220377467
  @DF-RKS Final Energy: -1390.43929861778906
    Total Energy =                      -1390.4392986177890634
  @DF-RKS Final Energy: -1390.43929868969622
    Total Energy =                      -1390.4392986896962157
  @DF-RKS Final Energy: -1390.43929868930809
    Total Energy =                      -1390.4392986893080888
  @DF-RKS Final Energy: -1390.43929868786245
    Total Energy =                      -1390.4392986878624470
  @DF-RKS Final Energy: -1390.43929868630062
    Total Energy =                      -1390.4392986863006172
  @DF-RKS Final Energy: -1390.43929868620785
    Total Energy =                      -1390.4392986862078487
  @DF-RKS Final Energy: -1390.43929868659711
    Total Energy =                      -1390.4392986865971125
  @DF-RKS Final Energy: -1390.43929868447412
    Total Energy =                      -1390.4392986844741245
  @DF-RKS Final Energy: -1390.43929868428427
    Total Energy =                      -1390.4392986842842674
  @DF-RKS Final Energy: -1390.43929868316218
    Total Energy =                      -1390.4392986831621783
  @DF-RKS Final Energy: -1390.43929868413375
    Total Energy =                      -1390.4392986841337461
  @DF-RKS Final Energy: -1390.43929868412920
    Total Energy =                      -1390.4392986841291986
  Basis Set: (DEF2-QZVP AUX)
    Blend: DEF2-QZVP-JKFIT
  Basis Set: DEF2-QZVP
    Blend: DEF2-QZVP
  Basis Set: (DEF2-QZVP AUX)
    Blend: DEF2-QZVP-JKFIT
  @DF-RKS Final Energy: -1390.43929868312330
    Total Energy =                      -1390.4392986831232975
  Basis Set: DEF2-QZVP
    Blend: DEF2-QZVP
  Basis Set: (DEF2-QZVP AUX)
    Blend: DEF2-QZVP-JKFIT
  Charge       = 0
  Multiplicity = 1
  Basis Set: DEF2-QZVP
    Blend: DEF2-QZVP
  Basis Set: (DEF2-QZVP AUX)
    Blend: DEF2-QZVP-JKFIT

    Orbital Energies [Eh]
    ---------------------

    Doubly Occupied:

       1A   -214.161537     2A    -24.415882     3A    -24.144239
       4A    -24.144239     5A    -20.827529     6A    -20.827119
       7A    -20.823062     8A    -18.705108     9A    -18.705107
      10A     -2.891098    11A     -1.899189    12A     -1.898539
      13A     -1.893848    14A     -1.100243    15A     -1.094872
      16A     -0.898816    17A     -0.888122    18A     -0.487024
      19A     -0.481056    20A     -0.464403    21A     -0.463241
      22A     -0.460522    23A     -0.426950    24A     -0.419781
      25A     -0.402378    26A     -0.384011    27A     -0.372344
      28A     -0.371605    29A     -0.329334

  @DF-RKS Final Energy: -1390.43929868327473

   => Energetics <=

    Nuclear Repulsion Energy =            351.9120839722240817
    One-Electron Energy =               -2620.3906342654831860
    Two-Electron Energy =                 959.8717075489444142
    DFT Exchange-Correlation Energy =     -81.8324559389599528
    Empirical Dispersion Energy =           0.0000000000000000
    VV10 Nonlocal Energy =                  0.0000000000000000
    Total Energy =                      -1390.4392986832747283

  Dipole Moment: [D]
     X:     0.0038      Y:    -0.2547      Z:     0.0561     Total:     0.2608

    Molecular point group: c1
  Basis Set: DEF2-QZVP
    Blend: DEF2-QZVP
  Basis Set: (DEF2-QZVP AUX)
    Blend: DEF2-QZVP-JKFIT

  -Total Gradient:
     Atom            X                  Y                   Z
    ------   -----------------  -----------------  -----------------
       1        0.000000369548    -0.000023122031     0.000005049000
       2        0.000001414166    -0.000019836603     0.000003561426
       3       -0.000000859961    -0.000019483377     0.000005125171
       4        0.000000504693    -0.000020287621     0.000004746783
       5        0.000000122236    -0.000020419604     0.000004220136

  **** Optimization is complete! (in 19 steps) ****
    Final optimized geometry and variables:
    Molecular point group: c1

    Geometry (in Angstrom), charge = 0, multiplicity = 1:

    CR          -0.000910280537     0.060580950916    -0.013333732007
    O            1.014321711869     0.809244732658    -0.920842331465
    O           -1.042884078759     1.091600611896     0.502470760006
    F           -0.788967847075    -1.139062613879    -0.914379305409
    F            0.815503395739    -0.626899712652     1.303063464380

*** Psi4 exiting successfully. Buy a developer a beer!
