                               Psi4 1.3.2 release

  ==> Input File <==

--------------------------------------------------------------------------
memory 8 gb

molecule {
symmetry c1
Cr        0.48028725377749    0.32716919378518    0.12128381663197
O         1.51332165941332    1.03448648135578   -0.78955553051410
O        -0.57831537187616    1.32157128739802    0.65757817076212
F        -0.29602430869141   -0.85637252313759   -0.76598418135575
F         1.28459076737678   -0.35182443940140    1.41848772447575
}

set basis def2-SVP
set geom_maxiter 250

# Use a (75,302) quadrature grid
set dft_radial_points 75
set dft_spherical_points 302

# Very tight geometry optimization
set g_convergence gau_verytight
# Increase allowed number of geometry optimization steps
set geom_maxiter 250

# Use the Hueckel type guess
set guess huckel

my_dft = {
    "name": "my r2scan",
    "x_functionals": {"mgga_x_r2scan": {}},
    "c_functionals": {"mgga_c_r2scan": {}}
}
optimize('scf', dft_functional=my_dft)
--------------------------------------------------------------------------

    Molecular point group: c1
  Charge       = 0
  Multiplicity = 1
  Basis Set: DEF2-SVP
    Blend: DEF2-SVP
  Basis Set: (DEF2-SVP AUX)
    Blend: DEF2-SVP-JKFIT
  @DF-RKS Final Energy: -1394.13249586075972
    Total Energy =                      -1394.1324958607597182
    Molecular point group: c1
  Basis Set: DEF2-SVP
    Blend: DEF2-SVP
  Basis Set: (DEF2-SVP AUX)
    Blend: DEF2-SVP-JKFIT
  Basis Set: DEF2-SVP
    Blend: DEF2-SVP
  Basis Set: (DEF2-SVP AUX)
    Blend: DEF2-SVP-JKFIT
  @DF-RKS Final Energy: -1394.13330980842466
    Total Energy =                      -1394.1333098084246558
  Basis Set: DEF2-SVP
    Blend: DEF2-SVP
  Basis Set: (DEF2-SVP AUX)
    Blend: DEF2-SVP-JKFIT
  Basis Set: DEF2-SVP
    Blend: DEF2-SVP
  @DF-RKS Final Energy: -1394.13349192469468
    Total Energy =                      -1394.1334919246946811
  @DF-RKS Final Energy: -1394.13359938023973
    Total Energy =                      -1394.1335993802397297
  @DF-RKS Final Energy: -1394.13361157513646
    Total Energy =                      -1394.1336115751364559
  @DF-RKS Final Energy: -1394.13362366121783
    Total Energy =                      -1394.1336236612178254
  @DF-RKS Final Energy: -1394.13362463334329
    Total Energy =                      -1394.1336246333432882
  @DF-RKS Final Energy: -1394.13362395999388
    Total Energy =                      -1394.1336239599938835
  Basis Set: (DEF2-SVP AUX)
    Blend: DEF2-SVP-JKFIT
  Basis Set: DEF2-SVP
    Blend: DEF2-SVP
  Basis Set: (DEF2-SVP AUX)
    Blend: DEF2-SVP-JKFIT
  @DF-RKS Final Energy: -1394.13362335847842
    Total Energy =                      -1394.1336233584784168
  Basis Set: DEF2-SVP
    Blend: DEF2-SVP
  Basis Set: (DEF2-SVP AUX)
    Blend: DEF2-SVP-JKFIT
  Charge       = 0
  Multiplicity = 1
  Basis Set: DEF2-SVP
    Blend: DEF2-SVP
  Basis Set: (DEF2-SVP AUX)
    Blend: DEF2-SVP-JKFIT

    Orbital Energies [Eh]
    ---------------------

    Doubly Occupied:

       1A   -215.551220     2A    -24.844937     3A    -24.541459
       4A    -24.541451     5A    -21.126062     6A    -21.125871
       7A    -21.122401     8A    -19.059347     9A    -19.059343
      10A     -3.041329    11A     -1.993026    12A     -1.991853
      13A     -1.985102    14A     -1.142358    15A     -1.137426
      16A     -0.944404    17A     -0.933711    18A     -0.495878
      19A     -0.488883    20A     -0.474995    21A     -0.474415
      22A     -0.472947    23A     -0.434756    24A     -0.422640
      25A     -0.410524    26A     -0.392908    27A     -0.379502
      28A     -0.378769    29A     -0.339113

  @DF-RKS Final Energy: -1394.13362333945952

   => Energetics <=

    Nuclear Repulsion Energy =            353.2583350958242363
    One-Electron Energy =               -2621.4524799168443678
    Two-Electron Energy =                 960.3397981651447708
    DFT Exchange-Correlation Energy =     -86.2792766835842571
    Empirical Dispersion Energy =           0.0000000000000000
    VV10 Nonlocal Energy =                  0.0000000000000000
    Total Energy =                      -1394.1336233394595183

  Dipole Moment: [D]
     X:     0.0027      Y:    -0.1822      Z:     0.0401     Total:     0.1866

    Molecular point group: c1
  Basis Set: DEF2-SVP
    Blend: DEF2-SVP
  Basis Set: (DEF2-SVP AUX)
    Blend: DEF2-SVP-JKFIT

  -Total Gradient:
     Atom            X                  Y                   Z
    ------   -----------------  -----------------  -----------------
       1        0.000011826052    -0.000787282219     0.000173293251
       2        0.000011872857    -0.000787174379     0.000173226894
       3        0.000011808995    -0.000787200828     0.000173278960
       4        0.000011820635    -0.000787182842     0.000173260269
       5        0.000011813736    -0.000787171696     0.000173247965

  **** Optimization is complete! (in 10 steps) ****
    Final optimized geometry and variables:
    Molecular point group: c1

    Geometry (in Angstrom), charge = 0, multiplicity = 1:

    CR          -0.001015294283     0.067569862448    -0.014871994644
    O            1.011953269063     0.805137194084    -0.918179841955
    O           -1.040382097367     1.086824557847     0.501763575852
    F           -0.781512760893    -1.142524834641    -0.902917119139
    F            0.808222983650    -0.635065590082     1.294160608884

*** Psi4 exiting successfully. Buy a developer a beer!
