   * xtb version 6.4.0 (4cdc11a) compiled by 'conda@a8a27530561a' on 2021-02-01
          program call               : xtb transplatin.xyz --gfn 2 --opt tight --parallel 1
          number of atoms            :                    11
          number of electrons        :                    40
          charge                     :                     0
          spin                       :                   0.0

   ID    Z sym.   atoms
    1   78 Pt     1
    2   17 Cl     2, 3
    3    7 N      4, 7
    4    1 H      5, 6, 8-11

          :  Hamiltonian                  GFN2-xTB          :
 * total energy  :   -22.6144631 Eh     change       -0.3869260E-10 Eh
 * total energy  :   -22.6182531 Eh     change       -0.3790061E-02 Eh
 * total energy  :   -22.6187224 Eh     change       -0.4692366E-03 Eh
 * total energy  :   -22.6187870 Eh     change       -0.6460203E-04 Eh
 * total energy  :   -22.6188058 Eh     change       -0.1879574E-04 Eh
 * total energy  :   -22.6188081 Eh     change       -0.2299285E-05 Eh
 * total energy  :   -22.6188092 Eh     change       -0.1111441E-05 Eh
 * total energy  :   -22.6188092 Eh     change       -0.4969881E-07 Eh
   *** GEOMETRY OPTIMIZATION CONVERGED AFTER 8 ITERATIONS ***

 final structure:
================
11
 xtb: 6.4.0 (4cdc11a)
Pt       -0.00000007856756   -0.00000002206477   -0.00000010868674
Cl        2.30229939955498    0.04263273027050    0.00000004389420
Cl       -2.30229951004775   -0.04263257914051   -0.00000002612054
N        -0.00560118815380   -2.04618270334684    0.00000000203806
H         0.47593659628961   -2.39843215014774   -0.82958448178644
H         0.47593664765795   -2.39843209598722    0.82958447835953
N         0.00560123043648    2.04618266773069    0.00000001028515
H        -0.47593659397304    2.39843212198496   -0.82958444854776
H        -0.47593655339653    2.39843208868331    0.82958450511095
H         0.97934353088146    2.36213121840266   -0.00000001712825
H        -0.97934348068181   -2.36213127638504    0.00000004258183

          :  Hamiltonian                  GFN2-xTB          :
         :: total energy             -22.618809235400 Eh    ::
         :: gradient norm              0.000025759729 Eh/a0 ::
         :: HOMO-LUMO gap              2.648170975208 eV    ::
         :: SCC energy               -22.726392666853 Eh    ::
         :: -> dispersion             -0.008256885667 Eh    ::
         :: repulsion energy           0.107561681717 Eh    ::

    * Orbital Energies and Occupations

         #    Occupation            Energy/Eh            Energy/eV
      -------------------------------------------------------------
         1        2.0000           -1.0005400             -27.2261
       ...           ...                  ...                  ...
         8        2.0000           -0.5677740             -15.4499
         9        2.0000           -0.5362815             -14.5930
        10        2.0000           -0.4861149             -13.2279
        11        2.0000           -0.4242355             -11.5440
        12        2.0000           -0.3899076             -10.6099
        13        2.0000           -0.3867305             -10.5235
        14        2.0000           -0.3848278             -10.4717
        15        2.0000           -0.3837594             -10.4426
        16        2.0000           -0.3812763             -10.3751
        17        2.0000           -0.3768120             -10.2536
        18        2.0000           -0.3680847             -10.0161
        19        2.0000           -0.3570723              -9.7164
        20        2.0000           -0.3491204              -9.5000 (HOMO)
        21                         -0.2518019              -6.8519 (LUMO)
        22                         -0.0503104              -1.3690
        23                         -0.0352038              -0.9579
        24                          0.0191688               0.5216
        25                          0.0881353               2.3983
        26                          0.0918397               2.4991
        27                          0.0944623               2.5704
        28                          0.0946892               2.5766
        29                          0.0948990               2.5823
        30                          0.0958067               2.6070
        31                          0.0980786               2.6689
       ...                                ...                  ...
        41                          1.2601380              34.2901
      -------------------------------------------------------------
                  HL-Gap            0.0973185 Eh            2.6482 eV

     #   Z          covCN         q      C6AA      α(0)
     1  78 Pt       3.339    -0.021   345.950    35.046
     2  17 Cl       0.834    -0.450   113.890    16.326
     3  17 Cl       0.834    -0.450   113.890    16.326
     4   7 N        3.414    -0.226    25.922     7.562
     5   1 H        0.860     0.226     0.981     1.552
     6   1 H        0.860     0.226     0.981     1.552
     7   7 N        3.414    -0.226    25.922     7.562
     8   1 H        0.860     0.226     0.981     1.552
     9   1 H        0.860     0.226     0.981     1.552
    10   1 H        0.860     0.234     0.948     1.525
    11   1 H        0.860     0.234     0.948     1.525

Wiberg/Mayer (AO) data.
largest (>0.10) Wiberg bond orders for each atom

     #   Z sym  total        # sym  WBO       # sym  WBO       # sym  WBO
 ---------------------------------------------------------------------------
     1  78 Pt   3.098 --     3 Cl   0.804     2 Cl   0.804     7 N    0.651
                             4 N    0.651
     2  17 Cl   0.944 --     1 Pt   0.804
     3  17 Cl   0.944 --     1 Pt   0.804
     4   7 N    3.489 --     6 H    0.914     5 H    0.914    11 H    0.911
                             1 Pt   0.651
     5   1 H    0.949 --     4 N    0.914
     6   1 H    0.949 --     4 N    0.914
     7   7 N    3.489 --     9 H    0.914     8 H    0.914    10 H    0.911
                             1 Pt   0.651
     8   1 H    0.949 --     7 N    0.914
     9   1 H    0.949 --     7 N    0.914
    10   1 H    0.945 --     7 N    0.911
    11   1 H    0.945 --     4 N    0.911
 ---------------------------------------------------------------------------

molecular dipole:
                 x           y           z       tot (Debye)
 q only:        0.000      -0.000       0.000
   full:        0.000      -0.000       0.000       0.000

           -------------------------------------------------
          | TOTAL ENERGY              -22.618809235400 Eh   |
          | GRADIENT NORM               0.000025759729 Eh/α |
          | HOMO-LUMO GAP               2.648170975208 eV   |
           -------------------------------------------------

 * finished run on 2021/06/07 at 16:02:12.750
