============================== echo of input deck ==============================
# echo input file to output
echo
title "Transplatin"
memory total 4 gb
scratch_dir /tmp

# Charge of the system
charge 0

# XYZ coordinates in Angstrom units
# Automatic symmetry detection enabled (default tol 0.01). Disable with noautosym.
geometry units angstroms autosym 0.1
 Pt                 0.00000000    0.00000000    0.00000000
 Cl                 2.27999997   -0.00036653    0.00000000
 Cl                -2.27999997    0.00036653    0.00000000
 N                 -0.00031991   -1.98999997    0.00000000
 H                  0.46944690   -2.32340883   -0.81740913
 H                  0.46944690   -2.32340883    0.81740913
 N                  0.00031991    1.98999997    0.00000000
 H                 -0.46944690    2.32340883   -0.81740913
 H                 -0.46944690    2.32340883    0.81740913
 H                  0.94318252    2.32318174    0.00000000
 H                 -0.94318252   -2.32318174    0.00000000
end

dft
  # Exchange-correlation functional
  xc pbe0
  # Semidirect SCF. Cache integrals in memory, but do not use disk
  # 130 megawords is ~1000 megabytes for 64-bit machines
  semidirect memsize 130000000 filesize 0
  # For completely direct SCF without caching, use
  #direct

  # Spin multiplicity 2S + 1, where S = 0, 1/2, 1, 3/2, ...
  mult 1
  # For open-shell singlet calculation, add
  #odft

  # Reduce output during geometry optimization
  noprint "final vectors analysis"

  # Increase the number of SCF iterations
  iterations 100
end

# Basis set definitions
basis spherical
  * library def2-tzvp
end
ecp
  Pt library def2-ecp
end

# Options for the geometry optimizer
driver
  # Max 100 optimization steps
  maxiter 100
  # Print XYZ coordinates of each step
  xyz
end

# Optimize geometry
task dft optimize

================================================================================

         Total DFT energy =    -1152.661773489057
@ Step       Energy      Delta E   Gmax     Grms     Xrms     Xmax   Walltime
@ ---- ---------------- -------- -------- -------- -------- -------- --------
@    0   -1152.66177349  0.0D+00  0.02023  0.00642  0.00000  0.00000     36.9
         Total DFT energy =    -1152.664807784740
         Total DFT energy =  -1152.664807784740
@    1   -1152.66480778 -3.0D-03  0.00607  0.00199  0.04118  0.08873     70.5
         Total DFT energy =    -1152.665195285734
         Total DFT energy =    -1152.665221051764
@    2   -1152.66522105 -4.1D-04  0.00097  0.00025  0.01888  0.04163    113.5
         Total DFT energy =    -1152.665237816571
         Total DFT energy =    -1152.665244939599
@    3   -1152.66524494 -2.4D-05  0.00030  0.00011  0.00519  0.01502    152.2
         Total DFT energy =    -1152.665248278987
         Total DFT energy =  -1152.665248278987
@    4   -1152.66524828 -3.3D-06  0.00014  0.00004  0.00236  0.00729    182.1
         Total DFT energy =    -1152.665249020258
         Total DFT energy =  -1152.665249020258
@    5   -1152.66524902 -7.4D-07  0.00011  0.00003  0.00127  0.00411    210.7
         Total DFT energy =    -1152.665249399101
         Total DFT energy =  -1152.665249399101
@    6   -1152.66524940 -3.8D-07  0.00004  0.00001  0.00132  0.00420    240.5
         Total DFT energy =    -1152.665249817436

     Multipole analysis of the density
     ---------------------------------

     L   x y z        total         alpha         beta         nuclear
     -   - - -        -----         -----         ----         -------
     0   0 0 0     -0.000000    -36.000000    -36.000000     72.000000

     1   1 0 0      0.000000      0.000000      0.000000      0.000000
     1   0 1 0      0.000000      0.000000      0.000000     -0.000000
     1   0 0 1     -0.000000     -0.000000     -0.000000      0.000000

     2   2 0 0    -28.017303   -178.502687   -178.502687    328.988071
     2   1 1 0      0.445459      5.036357      5.036357     -9.627254
     2   1 0 1      0.000000      0.000000      0.000000      0.000000
     2   0 2 0    -60.295708   -356.469185   -356.469185    652.642662
     2   0 1 1     -0.000000     -0.000000     -0.000000      0.000000

         Total DFT energy =  -1152.665249817436
@    7   -1152.66524982 -4.2D-07  0.00001  0.00000  0.00029  0.00065    268.6
@    7   -1152.66524982 -4.2D-07  0.00001  0.00000  0.00029  0.00065    268.6

 Output coordinates in angstroms (scale by  1.889725989 to convert to a.u.)

  No.       Tag          Charge          X              Y              Z
 ---- ---------------- ---------- -------------- -------------- --------------
    1 Pt                  78.0000     0.00000000     0.00000000     0.00000000
    2 Cl                  17.0000     0.03268667    -2.30077471     0.00000000
    3 Cl                  17.0000    -0.03268667     2.30077471     0.00000000
    4 N                    7.0000    -2.03616382     0.00386360     0.00000000
    5 H                    1.0000    -2.39288367    -0.47465975    -0.82120017
    6 H                    1.0000    -2.39288367    -0.47465975     0.82120017
    7 N                    7.0000     2.03616382    -0.00386360     0.00000000
    8 H                    1.0000     2.39288367     0.47465975    -0.82120017
    9 H                    1.0000     2.39288367     0.47465975     0.82120017
   10 H                    1.0000     2.36036834    -0.96849991     0.00000000
   11 H                    1.0000    -2.36036834     0.96849991     0.00000000

 Total times  cpu:      268.1s     wall:      268.6s
