   * xtb version 6.4.0 (4cdc11a) compiled by 'conda@a8a27530561a' on 2021-02-01
          program call               : xtb cisplatin.xyz --gfn 2 --opt tight --parallel 1
          number of atoms            :                    11
          number of electrons        :                    40
          charge                     :                     0
          spin                       :                   0.0

   ID    Z sym.   atoms
    1   78 Pt     1
    2   17 Cl     2, 3
    3    7 N      4, 7
    4    1 H      5, 6, 8-11

          :  Hamiltonian                  GFN2-xTB          :
 * total energy  :   -22.5947522 Eh     change       -0.1826095E-11 Eh
 * total energy  :   -22.6040001 Eh     change       -0.9247842E-02 Eh
 * total energy  :   -22.6081027 Eh     change       -0.4102580E-02 Eh
 * total energy  :   -22.6098975 Eh     change       -0.1794838E-02 Eh
 * total energy  :   -22.6108183 Eh     change       -0.9207758E-03 Eh
 * total energy  :   -22.6111125 Eh     change       -0.2942807E-03 Eh
 * total energy  :   -22.6112758 Eh     change       -0.1632059E-03 Eh
 * total energy  :   -22.6113386 Eh     change       -0.6286913E-04 Eh
 * total energy  :   -22.6113505 Eh     change       -0.1184524E-04 Eh
 * total energy  :   -22.6113532 Eh     change       -0.2751444E-05 Eh
 * total energy  :   -22.6113533 Eh     change       -0.7320109E-07 Eh
   *** GEOMETRY OPTIMIZATION CONVERGED AFTER 11 ITERATIONS ***

 final structure:
================
11
 xtb: 6.4.0 (4cdc11a)
Pt       -0.00000449684088   -0.00000012301904   -0.21630620499149
Cl        0.00000161248914    1.63897313298448    1.30523154330430
Cl        0.00000162663365   -1.63897292217798    1.30523195650038
N        -0.00000016695780    1.63213006687304   -1.62100671527553
H         0.82928918740351    1.70251885747651   -2.20321867213221
H        -0.82928852422915    1.70252024539014   -2.20322044341901
N        -0.00000016948130   -1.63213010987884   -1.62100686932329
H        -0.82928855150042   -1.70252023177277   -2.20322055776259
H         0.82928916751668   -1.70251883754120   -2.20321882607369
H         0.00000014939877    2.40398784044610   -0.94551830530188
H         0.00000016556780   -2.40398791878039   -0.94551852552498

          :  Hamiltonian                  GFN2-xTB          :
         :: total energy             -22.611353289782 Eh    ::
         :: gradient norm              0.000197627291 Eh/a0 ::
         :: HOMO-LUMO gap              2.459132857836 eV    ::
         :: SCC energy               -22.721598955506 Eh    ::
         :: -> dispersion             -0.008231733397 Eh    ::
         :: repulsion energy           0.110221479842 Eh    ::

    * Orbital Energies and Occupations

         #    Occupation            Energy/Eh            Energy/eV
      -------------------------------------------------------------
         1        2.0000           -1.0009590             -27.2375
       ...           ...                  ...                  ...
         8        2.0000           -0.5586703             -15.2022
         9        2.0000           -0.5197909             -14.1442
        10        2.0000           -0.4763777             -12.9629
        11        2.0000           -0.4102082             -11.1623
        12        2.0000           -0.3961351             -10.7794
        13        2.0000           -0.3910278             -10.6404
        14        2.0000           -0.3899663             -10.6115
        15        2.0000           -0.3840648             -10.4509
        16        2.0000           -0.3686602             -10.0318
        17        2.0000           -0.3609176              -9.8211
        18        2.0000           -0.3555914              -9.6761
        19        2.0000           -0.3500380              -9.5250
        20        2.0000           -0.3493933              -9.5075 (HOMO)
        21                         -0.2590218              -7.0483 (LUMO)
        22                         -0.0542138              -1.4752
        23                         -0.0050565              -0.1376
        24                          0.0285953               0.7781
        25                          0.0594870               1.6187
        26                          0.0884011               2.4055
        27                          0.0900633               2.4507
        28                          0.0904484               2.4612
        29                          0.0910626               2.4779
        30                          0.0919407               2.5018
        31                          0.0978923               2.6638
       ...                                ...                  ...
        41                          1.4255518              38.7912
      -------------------------------------------------------------
                  HL-Gap            0.0903715 Eh            2.4591 eV

     #   Z          covCN         q      C6AA      α(0)
     1  78 Pt       3.250    -0.041   348.073    35.154
     2  17 Cl       0.850    -0.328   109.646    16.019
     3  17 Cl       0.850    -0.328   109.646    16.019
     4   7 N        3.360    -0.282    27.269     7.756
     5   1 H        0.860     0.196     1.126     1.662
     6   1 H        0.860     0.196     1.126     1.662
     7   7 N        3.360    -0.282    27.269     7.756
     8   1 H        0.860     0.196     1.126     1.662
     9   1 H        0.860     0.196     1.126     1.662
    10   1 H        0.860     0.239     0.929     1.510
    11   1 H        0.860     0.239     0.929     1.510

Wiberg/Mayer (AO) data.
largest (>0.10) Wiberg bond orders for each atom

     #   Z sym  total        # sym  WBO       # sym  WBO       # sym  WBO
 ---------------------------------------------------------------------------
     1  78 Pt   3.088 --     3 Cl   0.982     2 Cl   0.982     7 N    0.507
                             4 N    0.507
     2  17 Cl   1.128 --     1 Pt   0.982
     3  17 Cl   1.128 --     1 Pt   0.982
     4   7 N    3.406 --     6 H    0.942     5 H    0.942    10 H    0.904
                             1 Pt   0.507
     5   1 H    0.962 --     4 N    0.942
     6   1 H    0.962 --     4 N    0.942
     7   7 N    3.406 --     8 H    0.942     9 H    0.942    11 H    0.904
                             1 Pt   0.507
     8   1 H    0.962 --     7 N    0.942
     9   1 H    0.962 --     7 N    0.942
    10   1 H    0.943 --     4 N    0.904
    11   1 H    0.943 --     7 N    0.904
 ---------------------------------------------------------------------------

molecular dipole:
                 x           y           z       tot (Debye)
 q only:       -0.000      -0.000      -3.992
   full:        0.000      -0.000      -4.233      10.760

           -------------------------------------------------
          | TOTAL ENERGY              -22.611353289782 Eh   |
          | GRADIENT NORM               0.000197627291 Eh/α |
          | HOMO-LUMO GAP               2.459132857836 eV   |
           -------------------------------------------------

 * finished run on 2021/06/07 at 16:01:34.796
